Job jag_cod_opt_B3LYP_6-31Gss started on chemcca11.ucsd.edu at Fri Sep 25 15:37:39 2015
jobid: chemcca11-0-5605ccb2

  +--------------------------------------------------------------------+
  |  Jaguar version 8.8, release  10                                   |
  |                                                                    |
  |  Copyright Schrodinger, Inc.                                       |
  |  All Rights Reserved.                                              |
  |                                                                    |
  |  The following have contributed to Jaguar (listed alphabetically): |
  |  Mike Beachy, Art Bochevarov, Dale Braden, Yixiang Cao,            |
  |  Chris Cortis, Rich Friesner, Bill Goddard, Hod Greeley,           |
  |  Tom Hughes, Jean-Marc Langlois, Daniel Mainz, Rob Murphy,         |
  |  Dean Philipp, Tom Pollard, Murco Ringnalda.                       |
  |                                                                    |
  |  Use of this program should be acknowledged in publications as:    |
  |                                                                    |
  |  Jaguar, version 8.8, Schrodinger, Inc., New York, NY, 2015.       |
  |                                                                    |
  |  A. D. Bochevarov, E. Harder, T. F. Hughes, J. R. Greenwood,       |
  |  D. A. Braden, D. M. Philipp, D. Rinaldo, M. D. Halls,             |
  |  J. Zhang, R. A. Friesner, "Jaguar: A High-Performance Quantum     |
  |  Chemistry Software Program with Strengths in Life and Materials   |
  |  Sciences", Int. J. Quantum Chem., 2013, 113(18), 2110-2142.       |
  +--------------------------------------------------------------------+
  
  start of program pre
  
  Job name: jag_cod_opt_B3LYP_6-31Gss
  Executables used: /net/software/pkg/schrodinger/v2015u2/jaguar-v88010/bin/Linux-x86_64
  Temporary files : /tmp/clee/jag_cod_opt_B3LYP_6-31Gss#chemcca11-0-5605ccb2
  Maestro file (input):  jag_cod_opt_B3LYP_6-31Gss.mae
  Maestro file (output): jag_cod_opt_B3LYP_6-31Gss.01.mae
  
  
  basis set:             6-31g**                         
  net molecular charge:    0
  multiplicity:            1
  
  Running   4 MPI processes
   
  Master MPI process running on chemcca11.ucsd.edu
   Slave MPI process   1 running on chemcca11.ucsd.edu
   Slave MPI process   2 running on chemcca11.ucsd.edu
   Slave MPI process   3 running on chemcca11.ucsd.edu
  
  Using up to  12 threads per process
  
  number of basis functions....          435
  
 Input geometry:
                                   angstroms
  atom               x                 y                 z
  C1            0.0000000000      0.0000000000     35.0000000000 
  C2            1.4000000000      0.0000000000     35.0000000000 
  C3            2.1070000000      1.2110000000     35.0000000000 
  C4            1.4450000000      2.4450000000     34.9620000000 
  C5            0.0480000000      2.4570000000     35.0120000000 
  C6           -0.6290000000      1.2420000000     35.0470000000 
  C7           -2.0760000000      1.4970000000     34.7440000000 
  C8           -2.7180000000      0.3350000000     33.9770000000 
  C9           -2.3620000000     -0.9550000000     34.7490000000 
  C10          -0.8300000000     -1.2340000000     34.7190000000 
  C11          -1.8640000000      2.8270000000     33.9850000000 
  C12          -2.7850000000      1.6420000000     36.0990000000 
  C13          -2.5490000000      0.3350000000     36.8880000000 
  N14          -2.9440000000     -0.8460000000     36.1000000000 
  C15          -2.8150000000     -2.0800000000     36.8920000000 
  H16          -3.8000000000      0.4640000000     33.9890000000 
  C17          -2.2860000000      0.2680000000     32.5300000000 
  C18          -2.0020000000      1.3920000000     31.8580000000 
  C19          -1.3540000000      2.5720000000     32.5470000000 
  H20          -2.7740000000      3.4280000000     33.9780000000 
  O21          -0.7890000000      3.4740000000     34.6480000000 
  H22          -1.5140000000      3.4720000000     31.9530000000 
  O23           0.0510000000      2.3050000000     32.5960000000 
  O24           2.1480000000      3.6060000000     34.8300000000 
  H25           1.9420000000     -0.9440000000     34.9360000000 
  H26           3.1960000000      1.1910000000     34.9560000000 
  H27          -2.8560000000     -1.7890000000     34.2500000000 
  H28          -0.5700000000     -1.5810000000     33.7190000000 
  H29          -0.5750000000     -2.0180000000     35.4290000000 
  H30          -3.8520000000      1.8000000000     35.9450000000 
  H31          -2.3680000000      2.4840000000     36.6530000000 
  H32          -3.1430000000      0.3700000000     37.8010000000 
  H33          -1.4980000000      0.2520000000     37.1650000000 
  H34          -3.4950000000     -2.0340000000     37.7430000000 
  H35          -1.7960000000     -2.1890000000     37.2610000000 
  H36          -3.0750000000     -2.9430000000     36.2790000000 
  H37          -2.5260000000     -0.6300000000     31.9610000000 
  H38          -1.9380000000      1.3380000000     30.7710000000 
  H39           0.3960000000      2.1840000000     31.7050000000 
  C40           2.0680000000      4.0900000000     33.5070000000 
  H41           2.4130000000      3.3250000000     32.8110000000 
  H42           1.0380000000      4.3600000000     33.2720000000 
  H43           2.6990000000      4.9740000000     33.4100000000 
   
  principal moments of inertia:
        amu*angstrom^2:      923.10904     1811.50710     2055.52214
                g*cm^2: 1.53285843E-37 3.00807794E-37 3.41327439E-37
   
  rotational constants:
               cm^(-1):      0.01826180      0.00930586      0.00820114
                   GHz:      0.54747488      0.27898263      0.24586405
   
  Molecular weight:     299.15 amu
   
  Stoichiometry: C18NH21O3
  Molecular Point Group: C1      
  Point Group used: C1
  
 
Number of optimization coordinates:   156
Number of independent coordinates:    156
Number of non-redundant coordinates:  123
Number of frozen coordinates:           0
Number of harmonic constraints:         0
 
Number of geometric degrees of freedom:   123
Maximum geometric degrees of freedom:     123
 " " " " " excluding dummy atoms:         123
 
  nuclear repulsion energy.......    2037.354826843 hartrees
 
 Non-default options chosen:
   SCF calculation type: DFT(b3lyp)                  
   DFT=Becke_3_Parameter/HF+Slater+Becke88+VWN+LYP (B3LYP)
   Geometry will be optimized in redundant internal coordinates
   Electrostatic potential fit to point charges on atomic centers
   Electron density will be written to .vis file
   Molecular electrostatic potential will be written to .vis file
  
 Temporary integer options set:
     73=  2
  
  Peak memory usage:   3654 Mb
  
  end of program pre
   
 Time(pre)  user:        3.2  user+sys:        3.2  wallclock:        1.7
  
  start of program onee
  
  smallest eigenvalue of S:    3.688E-04
  number of canonical orbitals.....          434
  Peak memory usage:   3758 Mb
  
  end of program onee
   
 Time(onee)  user:        3.7  user+sys:        3.7  wallclock:        1.7
  
  start of program hfig
  
  initial wavefunction generated automatically from atomic wavefunctions
 
  Irreducible     Total no   No of occupied orbitals 
  representation  orbitals   Shell_1  Shell_2    ...
  No Symm          434         80
  ------------------------
  Orbital occupation/shell    1.000
 
  Peak memory usage:   3695 Mb
  
  end of program hfig
   
 Time(hfig)  user:        9.0  user+sys:        9.0  wallclock:        2.0
  
  start of program probe
  
  Peak memory usage:   3688 Mb
  
  end of program probe
   
 Time(probe)  user:        7.1  user+sys:        7.1  wallclock:        1.8
  
  start of program grid
  
  
   grid     grid set  grid #  grid sym
  ------    --------  ------  --------
  coarse        0        0        1
  medium        2        1        1
  fine          0        0        1
  ultrafine     4        2        1
  charge       -1        3        1
  gradient      4        2        1
  density       0        0        1
  DFT-fine    -11        4        1
  DFT-med.    -10        5        1
  DFT-grad    -12        6        1
  DFT-der2      0        0        1
  DFT-cphf      0        0        1
  LMP2-enrg     4        2        1
  LMP2-grad     2        1        1
  DFT-cphf2     0        0        1
  PBF-dens      0        0        1
  plotting     -7        7        1
  Rel-grad    -17        0        1
  
   
  number of gridpoints: 
     atom        C1       C2       C3       C4       C5       C6       C7
  grid # 1      100       96       96      100       97       98       95
  grid # 2      357      337      340      352      348      352      337
  grid # 3       40      163      163      132      107       16        6
  grid # 4     4304     4304     4304     4304     4304     4304     4304
  grid # 5     1192     1192     1192     1192     1192     1192     1192
  grid # 6     5226     5226     5226     5226     5226     5226     5226
   
  number of gridpoints: 
     atom        C8       C9      C10      C11      C12      C13      N14
  grid # 1       90       90       85       89       82       82      108
  grid # 2      310      311      287      305      288      284      392
  grid # 3        6        6        6        6        6        6      114
  grid # 4     4304     4304     4304     4304     4304     4304     4304
  grid # 5     1192     1192     1192     1192     1192     1192     1192
  grid # 6     5226     5226     5226     5226     5226     5226     5226
   
  number of gridpoints: 
     atom       C15      H16      C17      C18      C19      H20      O21
  grid # 1       77      110       95       96       89      113      118
  grid # 2      261      430      338      337      308      438      440
  grid # 3        6      726       37      110        6      873      405
  grid # 4     4304     4304     4304     4304     4304     4304     4304
  grid # 5     1192     1192     1192     1192     1192     1192     1192
  grid # 6     5226     5226     5226     5226     5226     5226     5226
   
  number of gridpoints: 
     atom       H22      O23      O24      H25      H26      H27      H28
  grid # 1      109      106      116      117      116      109      109
  grid # 2      437      395      446      446      448      422      430
  grid # 3      850       83      686     1127     1198      581      710
  grid # 4     4304     4304     4304     4304     4304     4304     4304
  grid # 5     1192     1192     1192     1192     1192     1192     1192
  grid # 6     5226     5226     5226     5226     5226     5226     5226
   
  number of gridpoints: 
     atom       H29      H30      H31      H32      H33      H34      H35
  grid # 1      106      109      109      109      106      111      107
  grid # 2      425      432      433      436      422      438      423
  grid # 3      542      769      794      848      534     1050      716
  grid # 4     4304     4304     4304     4304     4304     4304     4304
  grid # 5     1192     1192     1192     1192     1192     1192     1192
  grid # 6     5226     5226     5226     5226     5226     5226     5226
   
  number of gridpoints: 
     atom       H36      H37      H38      H39      C40      H41      H42
  grid # 1      110      114      116      109       77      109      107
  grid # 2      435      439      444      435      255      430      421
  grid # 3      947      943     1124      818        6      727      538
  grid # 4     4304     4304     4304     4304     4304     4304     4304
  grid # 5     1192     1192     1192     1192     1192     1192     1192
  grid # 6     5226     5226     5226     5226     5226     5226     5226
   
  number of gridpoints: 
     atom       H43    total
  grid # 1      113     4400
  grid # 2      449    16493
  grid # 3     1318    19849
  grid # 4     4304   185072
  grid # 5     1192    51256
  grid # 6     5226   224718
   
  Sorting grid blocks by size.
  Peak memory usage:   3668 Mb
  
  end of program grid
   
 Time(grid)  user:       15.0  user+sys:       15.0  wallclock:        2.6
  
  start of program rwr
  
  Peak memory usage:   3702 Mb
  
  end of program rwr
   
 Time(rwr)  user:       40.7  user+sys:       40.7  wallclock:        4.9
  
  start of program scf
  
 number of electrons..........        160
 number of alpha electrons....         80
 number of beta electrons.....         80
 number of orbitals, total....        434
 number of doubly-occ'd orbs..         80
 number of open shell orbs....          0
 number of occupied orbitals..         80
 number of virtual orbitals...        354
 number of hamiltonians.......          1
 number of shells.............          1
 SCF type: DFT=Becke_3_Parameter/HF+Slater+Becke88+VWN+LYP (B3LYP)
  
       i  u  d  i  g                   
       t  p  i  c  r                                 RMS    maximum
       e  d  i  u  i                       energy  density   DIIS  
       r  t  s  t  d       total energy    change  change    error 
  
etot    1  N  N  5  M    -975.89000011986           5.2E-03  7.4E-02
etot    2  Y  Y  6  M    -977.99935814361  2.1E+00  4.7E-03  5.3E-02
etot    3  Y  Y  6  M    -978.25276962783  2.5E-01  2.7E-03  4.5E-02
etot    4  N  Y  2  U    -978.80826195898  5.6E-01  1.4E-03  1.5E-02
etot    5  Y  Y  6  M    -978.89096925576  8.3E-02  6.1E-04  6.3E-03
etot    6  N  Y  2  U    -978.90047196335  9.5E-03  3.8E-04  3.7E-03
etot    7  Y  Y  6  M    -978.90352670501  3.1E-03  9.2E-05  1.8E-03
etot    8  Y  Y  6  M    -978.90463336378  1.1E-03  2.9E-05  3.9E-04
etot    9  N  Y  2  U    -978.90490373048  2.7E-04  9.8E-06  1.2E-04
etot   10  N  Y  2  U    -978.90490822184  4.5E-06  3.9E-06  3.3E-05
etot   11  N  N  2  U    -978.90490866176  4.4E-07  0.0E+00  0.0E+00
  
  
 Energy components, in hartrees:
   (A)  Nuclear repulsion............    2037.35482684282
   (E)  Total one-electron terms.....   -5382.43256190667
   (I)  Total two-electron terms.....    2366.17282640208
   (J)    Coulomb....................    2504.67961575542
   (K)    Exchange+Correlation.......    -138.50678935334
   (L)  Electronic energy............   -3016.25973550459  (E+I)
   (N)  Total energy.................    -978.90490866176  (A+L)
  
 SCFE: SCF energy: DFT(b3lyp)      -978.90490866176 hartrees   iterations:  11
  
 
 HOMO energy:    -0.19487
 LUMO energy:    -0.00779
 
  Orbital energies (hartrees): 
   -19.16841   -19.14657   -19.14296   -14.31624   -10.24618   -10.24479
   -10.22155   -10.22111   -10.21402   -10.20796   -10.19920   -10.19771
   -10.19526   -10.19494   -10.19487   -10.18995   -10.18031   -10.17974
   -10.17867   -10.17447   -10.17232   -10.16667    -1.07956    -1.03799
    -1.02104    -0.91966    -0.85291    -0.82891    -0.78915    -0.77342
    -0.75334    -0.72706    -0.72334    -0.70048    -0.67608    -0.65355
    -0.63115    -0.62799    -0.59836    -0.58972    -0.58247    -0.55102
    -0.52290    -0.50955    -0.50131    -0.50014    -0.47851    -0.47408
    -0.46834    -0.45765    -0.45436    -0.44398    -0.43987    -0.43459
    -0.42471    -0.42126    -0.41103    -0.40773    -0.40248    -0.39566
    -0.38457    -0.37794    -0.37371    -0.36590    -0.35886    -0.35665
    -0.34749    -0.34666    -0.33024    -0.32890    -0.31771    -0.30708
    -0.30021    -0.28847    -0.27581    -0.25060    -0.24783    -0.21716
    -0.19816    -0.19487    -0.00779     0.01128     0.01861     0.06764
     0.08985     0.09912     0.11155     0.11993     0.12320     0.12660
 
[running at reduced cpu priority]
[running at reduced cpu priority]
[running at reduced cpu priority]
[running at reduced cpu priority]
  Peak memory usage:   4573 Mb
  
  end of program scf
   
 Time(scf)  user:      148.3  user+sys:      148.3  wallclock:       14.5
  
  start of program der1a
  
  Peak memory usage:   3709 Mb
  
  end of program der1a
   
 Time(der1a)  user:        3.8  user+sys:        3.8  wallclock:        1.5
  
  start of program rwr
  
  Peak memory usage:   3703 Mb
  
  end of program rwr
   
 Time(rwr)  user:       38.3  user+sys:       38.3  wallclock:        7.0
  
  start of program der1b
  
   
  forces (hartrees/bohr) : total     
   
 atom  label           x              y              z
 ---- --------   -------------  -------------  -------------
    1 C1          1.937630E-03   8.772873E-03  -1.210453E-03
    2 C2          2.316620E-03   2.419710E-03   1.504353E-03
    3 C3         -1.823280E-03  -5.454807E-03   1.735774E-03
    4 C4         -5.597910E-03  -1.170653E-04   1.643559E-02
    5 C5          1.194322E-02  -2.831824E-02   3.677761E-03
    6 C6          1.233675E-02  -1.224408E-02  -7.947295E-03
    7 C7          3.454947E-03   5.604644E-03   6.217224E-03
    8 C8          2.297487E-02  -7.744769E-03  -1.336503E-03
    9 C9          2.077352E-03   5.517051E-03   1.130417E-02
   10 C10        -4.294295E-03   1.067598E-02   1.638058E-03
   11 C11        -7.283698E-03  -1.870345E-02  -1.231876E-02
   12 C12         1.170310E-03  -1.019041E-02   1.112795E-03
   13 C13        -8.415583E-03   9.222479E-04  -1.082481E-02
   14 N14        -1.210314E-02  -8.301846E-03   3.911111E-03
   15 C15        -2.514319E-03   1.694185E-02  -9.775564E-03
   16 H16        -5.702234E-03  -3.027818E-03   4.569969E-04
   17 C17        -2.655303E-02   1.525770E-02  -4.476660E-03
   18 C18         1.312922E-02  -1.238447E-02   7.790093E-04
   19 C19        -1.215373E-02  -1.592546E-03  -1.957272E-02
   20 H20         3.133418E-03   7.811000E-03   2.974523E-06
   21 O21         2.089016E-03   2.497897E-02   1.612795E-02
   22 H22        -1.969225E-03   7.370174E-03  -8.709984E-04
   23 O23        -1.950705E-03   6.263826E-04  -9.288237E-03
   24 O24         1.118473E-02   3.395622E-03   7.422761E-03
   25 H25        -1.239886E-04   2.151634E-03   9.862818E-04
   26 H26        -2.796730E-03   3.404950E-03   6.378851E-04
   27 H27        -3.222364E-03  -4.816939E-03   2.329162E-04
   28 H28         2.238975E-03  -5.692914E-03  -3.142417E-03
   29 H29        -3.153481E-04  -6.432190E-03   2.677123E-04
   30 H30        -5.304056E-03   1.662528E-03   1.954912E-03
   31 H31        -7.405176E-04   2.185182E-03   1.657770E-03
   32 H32        -2.204385E-03  -3.728019E-03   3.549747E-03
   33 H33         5.931457E-03   4.297715E-03   6.672375E-03
   34 H34        -1.345602E-03  -6.608140E-04   2.783289E-03
   35 H35         7.032897E-03  -7.177906E-03   6.297335E-03
   36 H36        -5.292598E-04  -2.305415E-03  -9.145445E-04
   37 H37        -9.398655E-04  -1.803625E-03   2.752071E-03
   38 H38         3.092031E-03   3.616790E-03  -3.825251E-05
   39 H39        -4.144369E-03  -9.919138E-05  -4.990133E-03
   40 C40        -8.208875E-04   1.218239E-02  -8.209618E-03
   41 H41         1.487512E-03  -7.264795E-04  -5.019383E-03
   42 H42         1.031489E-03   1.177227E-03  -3.848290E-03
   43 H43         3.470044E-03   1.136713E-03   4.151355E-03
 -------------   -------------  -------------  -------------
     total       -8.160354E-04   5.863401E-04   4.855427E-04
   
  Peak memory usage:   4499 Mb
  
  end of program der1b
   
 Time(der1b)  user:       35.7  user+sys:       35.7  wallclock:        4.5
  
  start of program geopt
  
  geometry optimization step  1
  energy:            -978.90490866176 hartrees
  
  
  Level shifts adjusted to satisfy step-size constraints
   Step size:    0.3004814
   Cos(theta):   0.8680526
   Final level shift:  -1.8274447E-01
  
  gradient maximum:        4.8361E-02 .  (  4.5000E-04 )
  gradient rms:            1.3645E-02 .  (  3.0000E-04 )
  displacement maximum:    8.4442E-02 .  (  1.8000E-03 )
  displacement rms:        2.4055E-02 .  (  1.2000E-03 )
  
  predicted energy change:  -3.0474E-02
  step size:     0.30044
  trust radius:  0.30000
  
  molecular structure not yet converged...
  
  center of mass moved by:
     x:    -1.3234E-02     y:    -1.7167E-02     z:    -4.4641E-02
  
  new geometry: 
                                   angstroms
  atom               x                 y                 z
  C1            0.0449362521     -0.0158669741     34.9907202437 
  C2            1.4449524259      0.0102947293     35.0747564691 
  C3            2.1341739189      1.2316232693     35.1135321550 
  C4            1.4776874172      2.4647269294     35.0131898466 
  C5            0.0797450165      2.4340158669     34.9513980010 
  C6           -0.5854917306      1.2142816824     34.9869623508 
  C7           -2.0465503405      1.4692899904     34.7190283706 
  C8           -2.7244844817      0.2967649222     33.9925207877 
  C9           -2.3462984106     -0.9811684664     34.7878682089 
  C10          -0.8042706056     -1.2562090329     34.7417705745 
  C11          -1.8898481909      2.7941458698     33.9226667268 
  C12          -2.7545247082      1.6229095474     36.0881149442 
  C13          -2.5293183391      0.3402769658     36.9068177819 
  N14          -2.9215601850     -0.8516056832     36.1433487211 
  C15          -2.7935658308     -2.0621482971     36.9582934854 
  H16          -3.8106819390      0.4162988348     34.0636660027 
  C17          -2.4313753152      0.2414074981     32.5113748696 
  C18          -2.2227604372      1.3621697121     31.8046861313 
  C19          -1.5410052310      2.5638211986     32.4166759050 
  H20          -2.7853222908      3.4177303859     33.9706625283 
  O21          -0.7791755651      3.4538832569     34.5740099218 
  H22          -1.7858641676      3.4819858478     31.8684537209 
  O23          -0.1417364369      2.3356763889     32.2640077288 
  O24           2.2155523575      3.6330161099     34.9983656429 
  H25           2.0080043631     -0.9210534629     35.0605884340 
  H26           3.2207824497      1.2370185989     35.1483339998 
  H27          -2.8557699653     -1.8350538766     34.3284738628 
  H28          -0.5300313889     -1.6707048362     33.7657894521 
  H29          -0.5745631642     -2.0253777083     35.4832795704 
  H30          -3.8288709506      1.7798967222     35.9478781428 
  H31          -2.3429355704      2.4750051973     36.6351184141 
  H32          -3.1492807827      0.3760899221     37.8073218794 
  H33          -1.4832459395      0.2917583574     37.2344024019 
  H34          -3.4702345955     -1.9951479847     37.8143980608 
  H35          -1.7741529829     -2.2019081565     37.3437166961 
  H36          -3.0668582975     -2.9384176097     36.3658312838 
  H37          -2.7079720234     -0.6700139357     31.9810888099 
  H38          -2.2474317147      1.3135975733     30.7157621734 
  H39           0.0494755223      2.2349580555     31.3230699113 
  C40           2.3891437976      4.2332445908     33.7152168782 
  H41           2.8443647174      3.5259993115     33.0148682123 
  H42           1.4345214328      4.5662216867     33.3054281307 
  H43           3.0509896021      5.0941970338     33.8393237878 
   
  nuclear repulsion energy.......    2002.500517564 hartrees
  -------------------------------------------------
 /  end of geometry optimization iteration   1   /
 -------------------------------------------------
   
  Peak memory usage:   3521 Mb
  
  end of program geopt
   
 Time(geopt)  user:        2.7  user+sys:        2.7  wallclock:        0.3
  
  start of program onee
  
  smallest eigenvalue of S:    3.347E-04
  number of canonical orbitals.....          434
  Peak memory usage:   3758 Mb
  
  end of program onee
   
 Time(onee)  user:        4.3  user+sys:        4.3  wallclock:        1.6
  
  start of program probe
  
  Peak memory usage:   3688 Mb
  
  end of program probe
   
 Time(probe)  user:        5.3  user+sys:        5.3  wallclock:        1.7
  
  start of program grid
  
  
   grid     grid set  grid #  grid sym
  ------    --------  ------  --------
  coarse        0        0        1
  medium        2        1        1
  fine          0        0        1
  ultrafine     4        2        1
  charge       -1        3        1
  gradient      4        2        1
  density       0        0        1
  DFT-fine    -11        4        1
  DFT-med.    -10        5        1
  DFT-grad    -12        6        1
  DFT-der2      0        0        1
  DFT-cphf      0        0        1
  LMP2-enrg     4        2        1
  LMP2-grad     2        1        1
  DFT-cphf2     0        0        1
  PBF-dens      0        0        1
  plotting     -7        7        1
  Rel-grad    -17        0        1
  
   
  number of gridpoints: 
     atom        C1       C2       C3       C4       C5       C6       C7
  grid # 1       97       96       95       96       96       98       96
  grid # 2      358      335      338      354      347      354      339
  grid # 3       52      168      181      124       89       19        6
  grid # 4     4304     4304     4304     4304     4304     4304     4304
  grid # 5     1192     1192     1192     1192     1192     1192     1192
  grid # 6     5226     5226     5226     5226     5226     5226     5226
   
  number of gridpoints: 
     atom        C8       C9      C10      C11      C12      C13      N14
  grid # 1       90       90       86       89       84       84      106
  grid # 2      317      312      288      314      295      288      386
  grid # 3        6        6        6        6        6        6      110
  grid # 4     4304     4304     4304     4304     4304     4304     4304
  grid # 5     1192     1192     1192     1192     1192     1192     1192
  grid # 6     5226     5226     5226     5226     5226     5226     5226
   
  number of gridpoints: 
     atom       C15      H16      C17      C18      C19      H20      O21
  grid # 1       79      108       95       96       89      111      117
  grid # 2      260      428      338      337      309      438      447
  grid # 3        6      702       49      110        6      854      425
  grid # 4     4304     4304     4304     4304     4304     4304     4304
  grid # 5     1192     1192     1192     1192     1192     1192     1192
  grid # 6     5226     5226     5226     5226     5226     5226     5226
   
  number of gridpoints: 
     atom       H22      O23      O24      H25      H26      H27      H28
  grid # 1      111      107      116      117      116      107      109
  grid # 2      441      407      452      448      447      423      433
  grid # 3      904      191      646     1152     1176      576      785
  grid # 4     4304     4304     4304     4304     4304     4304     4304
  grid # 5     1192     1192     1192     1192     1192     1192     1192
  grid # 6     5226     5226     5226     5226     5226     5226     5226
   
  number of gridpoints: 
     atom       H29      H30      H31      H32      H33      H34      H35
  grid # 1      105      110      110      108      108      111      106
  grid # 2      422      430      434      433      423      437      426
  grid # 3      533      751      790      829      561     1025      734
  grid # 4     4304     4304     4304     4304     4304     4304     4304
  grid # 5     1192     1192     1192     1192     1192     1192     1192
  grid # 6     5226     5226     5226     5226     5226     5226     5226
   
  number of gridpoints: 
     atom       H36      H37      H38      H39      C40      H41      H42
  grid # 1      110      115      116      111       77      112      108
  grid # 2      434      440      443      441      259      437      432
  grid # 3      940      970     1098      995        6      924      721
  grid # 4     4304     4304     4304     4304     4304     4304     4304
  grid # 5     1192     1192     1192     1192     1192     1192     1192
  grid # 6     5226     5226     5226     5226     5226     5226     5226
   
  number of gridpoints: 
     atom       H43    total
  grid # 1      113     4401
  grid # 2      449    16573
  grid # 3     1311    20555
  grid # 4     4304   185072
  grid # 5     1192    51256
  grid # 6     5226   224718
   
  Sorting grid blocks by size.
  Peak memory usage:   3668 Mb
  
  end of program grid
   
 Time(grid)  user:       15.4  user+sys:       15.4  wallclock:        3.3
  
  start of program rwr
  
  Peak memory usage:   3690 Mb
  
  end of program rwr
   
 Time(rwr)  user:       41.5  user+sys:       41.5  wallclock:        5.2
  
  start of program scf
  
  
       i  u  d  i  g                   
       t  p  i  c  r                                 RMS    maximum
       e  d  i  u  i                       energy  density   DIIS  
       r  t  s  t  d       total energy    change  change    error 
  
etot    1  N  N  2  U    -978.87296382087           6.6E-04  1.2E-02
etot    2  Y  Y  6  M    -978.92594326466  5.3E-02  1.6E-04  1.8E-03
etot    3  N  Y  2  U    -978.92562937207 -3.1E-04  9.9E-05  2.5E-03
etot    4  Y  Y  6  M    -978.92714184652  1.5E-03  2.0E-05  3.0E-04
etot    5  N  Y  2  U    -978.92710650460 -3.5E-05  9.1E-06  1.6E-04
etot    6  N  Y  2  U    -978.92711431726  7.8E-06  3.5E-06  5.0E-05
etot    7  N  N  2  U    -978.92711486864  5.5E-07  0.0E+00  0.0E+00
  
  
 Energy components, in hartrees:
   (A)  Nuclear repulsion............    2002.50051756448
   (E)  Total one-electron terms.....   -5312.91668010748
   (I)  Total two-electron terms.....    2331.48904767436
   (J)    Coulomb....................    2469.87877290820
   (K)    Exchange+Correlation.......    -138.38972523384
   (L)  Electronic energy............   -2981.42763243312  (E+I)
   (N)  Total energy.................    -978.92711486864  (A+L)
  
 SCFE: SCF energy: DFT(b3lyp)      -978.92711486864 hartrees   iterations:   7
  
 
 HOMO energy:    -0.19856
 LUMO energy:    -0.00475
 
  Orbital energies (hartrees): 
   -19.16570   -19.14512   -19.14470   -14.31913   -10.24632   -10.24464
   -10.22546   -10.22465   -10.21722   -10.21524   -10.20060   -10.19963
   -10.19805   -10.19537   -10.19511   -10.18994   -10.18404   -10.18336
   -10.17967   -10.17579   -10.17405   -10.16912    -1.06023    -1.02696
    -1.01846    -0.92086    -0.85185    -0.82854    -0.78571    -0.77313
    -0.75068    -0.72695    -0.72282    -0.70098    -0.67693    -0.65474
    -0.62924    -0.62568    -0.59738    -0.58688    -0.58032    -0.54762
    -0.52156    -0.50612    -0.50041    -0.49674    -0.47702    -0.47143
    -0.46330    -0.45490    -0.45015    -0.44121    -0.44024    -0.43197
    -0.42673    -0.42018    -0.41126    -0.40597    -0.40171    -0.39411
    -0.38478    -0.37854    -0.37371    -0.36625    -0.35730    -0.35199
    -0.34832    -0.34391    -0.33001    -0.32738    -0.31682    -0.30846
    -0.30000    -0.28858    -0.27383    -0.25319    -0.24677    -0.22051
    -0.20197    -0.19856    -0.00475     0.01211     0.01714     0.06881
     0.08816     0.09564     0.11245     0.11934     0.12020     0.12847
 
[running at reduced cpu priority]
[running at reduced cpu priority]
[running at reduced cpu priority]
[running at reduced cpu priority]
  Peak memory usage:   4573 Mb
  
  end of program scf
   
 Time(scf)  user:      106.7  user+sys:      106.7  wallclock:       10.9
  
  start of program der1a
  
  Peak memory usage:   3709 Mb
  
  end of program der1a
   
 Time(der1a)  user:        2.7  user+sys:        2.7  wallclock:        1.6
  
  start of program rwr
  
  dpptrf failed in rinv with info = 225
  switching to SVD for RwR matrix  21 for grid  2
  Peak memory usage:   3703 Mb
  
  end of program rwr
   
 Time(rwr)  user:       33.0  user+sys:       33.0  wallclock:        5.4
  
  start of program der1b
  
   
  forces (hartrees/bohr) : total     
   
 atom  label           x              y              z
 ---- --------   -------------  -------------  -------------
    1 C1         -8.152278E-04   1.042639E-03   3.479631E-06
    2 C2          2.711372E-03   5.081402E-04   5.580938E-04
    3 C3         -1.149479E-03  -6.772873E-03  -9.572928E-04
    4 C4         -2.778369E-03   7.217530E-03   3.891434E-03
    5 C5          3.204343E-03  -6.069805E-03  -7.889383E-03
    6 C6          1.092964E-03  -1.775806E-03  -1.013950E-02
    7 C7         -4.352017E-03   3.786120E-03   5.933960E-04
    8 C8          1.544192E-02  -6.117134E-03   3.505029E-05
    9 C9          3.754353E-03   4.282344E-03   2.581080E-03
   10 C10        -1.374813E-03   5.291350E-03   5.279170E-03
   11 C11         1.498709E-03  -1.369844E-02  -2.702662E-03
   12 C12         1.713705E-03  -2.838101E-03   9.181213E-04
   13 C13        -6.338060E-03   1.549183E-03  -5.874066E-03
   14 N14        -3.198623E-03  -5.733200E-03   2.243068E-03
   15 C15        -5.728106E-04   8.714899E-03  -6.107586E-03
   16 H16        -2.406960E-03  -1.782680E-03   2.562971E-03
   17 C17        -2.068120E-02   1.012886E-02  -1.813123E-03
   18 C18         9.869924E-03  -1.055791E-02   3.056806E-03
   19 C19        -6.422708E-03   4.433224E-03  -5.845737E-03
   20 H20         2.509927E-03   4.300694E-03   3.086266E-03
   21 O21         3.632788E-03   8.747845E-03   2.968531E-03
   22 H22        -4.503738E-03   2.136253E-03   7.061911E-04
   23 O23         9.602178E-03   4.599754E-03   3.888471E-03
   24 O24         3.107740E-04  -1.903611E-03   3.120788E-03
   25 H25         1.595105E-04   9.777289E-04   1.028485E-03
   26 H26        -8.788526E-04   1.151579E-03   1.067792E-03
   27 H27         4.726597E-04  -2.049628E-03  -5.223165E-04
   28 H28        -9.335311E-04  -1.710573E-03  -1.507849E-03
   29 H29         1.583946E-03  -3.132458E-03  -2.794591E-04
   30 H30        -1.199145E-03   1.590283E-03  -4.859329E-04
   31 H31        -4.971060E-04   1.510799E-03   3.369372E-04
   32 H32        -7.359428E-04  -7.377375E-04   1.820776E-03
   33 H33         2.940585E-03   5.242075E-04   2.322009E-03
   34 H34        -8.143429E-04  -3.748970E-04   1.025763E-03
   35 H35         2.513951E-03  -3.388317E-03   2.574901E-03
   36 H36        -6.221321E-04  -1.218164E-03  -9.801465E-05
   37 H37        -6.388849E-05  -1.060094E-03   1.548874E-03
   38 H38         1.572965E-03   1.819759E-03   4.758163E-05
   39 H39        -2.096600E-03  -2.528692E-04  -5.418799E-04
   40 C40        -2.700055E-03  -1.024126E-03  -1.125756E-03
   41 H41         1.264735E-03  -8.273838E-04  -1.617413E-03
   42 H42        -2.475735E-03   5.123402E-04  -1.647898E-03
   43 H43        -5.199580E-06  -1.011019E-03   2.503804E-03
 -------------   -------------  -------------  -------------
     total       -1.765221E-03   7.887173E-04   6.139714E-04
   
  Peak memory usage:   4499 Mb
  
  end of program der1b
   
 Time(der1b)  user:       33.6  user+sys:       33.6  wallclock:        4.4
  
  start of program geopt
  
  geometry optimization step  2
  energy:            -978.92711486864 hartrees
  
  
  Level shifts adjusted to satisfy step-size constraints
   Step size:    0.3001280
   Cos(theta):   0.7498353
   Final level shift:  -4.3727418E-02
  
  energy change:          -2.2206E-02 .  (  5.0000E-05 )
  gradient maximum:        1.2694E-02 .  (  4.5000E-04 )
  gradient rms:            3.9636E-03 .  (  3.0000E-04 )
  displacement maximum:    1.0034E-01 .  (  1.8000E-03 )
  displacement rms:        2.4026E-02 .  (  1.2000E-03 )
  
  predicted energy change:  -7.5393E-03
  step size:     0.30008
  trust radius:  0.30000
  
  molecular structure not yet converged...
  
  center of mass moved by:
     x:     2.1152E-02     y:     2.9666E-03     z:    -1.8306E-02
  
  new geometry: 
                                   angstroms
  atom               x                 y                 z
  C1            0.0774672281     -0.0354191135     35.0044842851 
  C2            1.4761065616     -0.0040576531     35.1353715111 
  C3            2.1537620545      1.2190067924     35.1648200409 
  C4            1.4945592457      2.4491557900     35.0128987512 
  C5            0.1088130145      2.4065816153     34.9032831431 
  C6           -0.5537434752      1.1906196281     34.9509511310 
  C7           -2.0181221860      1.4539484183     34.7173312028 
  C8           -2.6985122191      0.2777547201     34.0068864863 
  C9           -2.3148028205     -0.9966804832     34.8093407534 
  C10          -0.7745215826     -1.2762149862     34.7899617798 
  C11          -1.8838575840      2.7836791970     33.9258346279 
  C12          -2.7446731419      1.6123235008     36.0813713821 
  C13          -2.5707284720      0.3316168166     36.9109964021 
  N14          -2.9345782707     -0.8655781538     36.1439626173 
  C15          -2.8495275550     -2.0692097127     36.9601334045 
  H16          -3.7868194505      0.3787001660     34.1229306557 
  C17          -2.4711331014      0.2539502256     32.5175830603 
  C18          -2.2422133322      1.3707357719     31.8116250272 
  C19          -1.5912533112      2.6074475651     32.4043030984 
  H20          -2.7508694670      3.4409058398     34.0325087834 
  O21          -0.7463328035      3.4433980493     34.5501654773 
  H22          -1.9451464676      3.5239809824     31.9064265962 
  O23          -0.1744856278      2.5125274233     32.1935609987 
  O24           2.2140551950      3.6222812982     34.9894278463 
  H25           2.0459268210     -0.9289774245     35.1752514781 
  H26           3.2363440167      1.2421044401     35.2435383723 
  H27          -2.8089668202     -1.8619745905     34.3475585465 
  H28          -0.5000567805     -1.7283091988     33.8271921026 
  H29          -0.5493727013     -2.0393488324     35.5449767957 
  H30          -3.8147260515      1.7938788242     35.9186136119 
  H31          -2.3345656308      2.4622505243     36.6366890653 
  H32          -3.2310274800      0.3704414032     37.7862657337 
  H33          -1.5393289514      0.2856030197     37.3001044842 
  H34          -3.5538801077     -1.9895679376     37.7953670756 
  H35          -1.8487632379     -2.2544998977     37.3915246586 
  H36          -3.1275127306     -2.9428827914     36.3622838422 
  H37          -2.7596509626     -0.6590326307     31.9957911150 
  H38          -2.2766128093      1.3351346844     30.7226710913 
  H39          -0.0331052541      2.4356047648     31.2411800180 
  C40           2.3649591163      4.1988572641     33.6902464931 
  H41           2.8472546512      3.4964268360     32.9975317831 
  H42           1.3985350182      4.4937346397     33.2672107809 
  H43           2.9989455965      5.0792295930     33.8191692062 
   
  nuclear repulsion energy.......    1996.064598717 hartrees
  -------------------------------------------------
 /  end of geometry optimization iteration   2   /
 -------------------------------------------------
   
  Peak memory usage:   3521 Mb
  
  end of program geopt
   
 Time(geopt)  user:        2.4  user+sys:        2.4  wallclock:        0.4
  
  start of program onee
  
  smallest eigenvalue of S:    3.096E-04
  number of canonical orbitals.....          434
  Peak memory usage:   3758 Mb
  
  end of program onee
   
 Time(onee)  user:        4.3  user+sys:        4.3  wallclock:        1.6
  
  start of program probe
  
  Peak memory usage:   3688 Mb
  
  end of program probe
   
 Time(probe)  user:        6.9  user+sys:        6.9  wallclock:        1.9
  
  start of program grid
  
  
   grid     grid set  grid #  grid sym
  ------    --------  ------  --------
  coarse        0        0        1
  medium        2        1        1
  fine          0        0        1
  ultrafine     4        2        1
  charge       -1        3        1
  gradient      4        2        1
  density       0        0        1
  DFT-fine    -11        4        1
  DFT-med.    -10        5        1
  DFT-grad    -12        6        1
  DFT-der2      0        0        1
  DFT-cphf      0        0        1
  LMP2-enrg     4        2        1
  LMP2-grad     2        1        1
  DFT-cphf2     0        0        1
  PBF-dens      0        0        1
  plotting     -7        7        1
  Rel-grad    -17        0        1
  
   
  number of gridpoints: 
     atom        C1       C2       C3       C4       C5       C6       C7
  grid # 1       97       97       95       95       96       98       93
  grid # 2      360      333      339      350      358      356      336
  grid # 3       58      177      182      131       82       30        6
  grid # 4     4304     4304     4304     4304     4304     4304     4304
  grid # 5     1192     1192     1192     1192     1192     1192     1192
  grid # 6     5226     5226     5226     5226     5226     5226     5226
   
  number of gridpoints: 
     atom        C8       C9      C10      C11      C12      C13      N14
  grid # 1       92       90       86       90       86       85      104
  grid # 2      319      313      289      317      294      288      382
  grid # 3        6        6        6        6        6        6      105
  grid # 4     4304     4304     4304     4304     4304     4304     4304
  grid # 5     1192     1192     1192     1192     1192     1192     1192
  grid # 6     5226     5226     5226     5226     5226     5226     5226
   
  number of gridpoints: 
     atom       C15      H16      C17      C18      C19      H20      O21
  grid # 1       78      108       95       96       90      111      117
  grid # 2      263      427      335      336      312      437      444
  grid # 3        6      668       63      117        6      819      408
  grid # 4     4304     4304     4304     4304     4304     4304     4304
  grid # 5     1192     1192     1192     1192     1192     1192     1192
  grid # 6     5226     5226     5226     5226     5226     5226     5226
   
  number of gridpoints: 
     atom       H22      O23      O24      H25      H26      H27      H28
  grid # 1      111      107      116      117      116      107      109
  grid # 2      440      407      452      448      448      422      433
  grid # 3      913      201      643     1165     1187      566      819
  grid # 4     4304     4304     4304     4304     4304     4304     4304
  grid # 5     1192     1192     1192     1192     1192     1192     1192
  grid # 6     5226     5226     5226     5226     5226     5226     5226
   
  number of gridpoints: 
     atom       H29      H30      H31      H32      H33      H34      H35
  grid # 1      105      109      109      108      108      111      107
  grid # 2      420      429      434      433      427      435      428
  grid # 3      541      733      790      828      595     1025      761
  grid # 4     4304     4304     4304     4304     4304     4304     4304
  grid # 5     1192     1192     1192     1192     1192     1192     1192
  grid # 6     5226     5226     5226     5226     5226     5226     5226
   
  number of gridpoints: 
     atom       H36      H37      H38      H39      C40      H41      H42
  grid # 1      109      114      115      111       78      112      106
  grid # 2      434      440      444      441      262      437      432
  grid # 3      934      982     1094     1017        6      953      673
  grid # 4     4304     4304     4304     4304     4304     4304     4304
  grid # 5     1192     1192     1192     1192     1192     1192     1192
  grid # 6     5226     5226     5226     5226     5226     5226     5226
   
  number of gridpoints: 
     atom       H43    total
  grid # 1      111     4395
  grid # 2      447    16581
  grid # 3     1307    20627
  grid # 4     4304   185072
  grid # 5     1192    51256
  grid # 6     5226   224718
   
  Sorting grid blocks by size.
  Peak memory usage:   3668 Mb
  
  end of program grid
   
 Time(grid)  user:       16.9  user+sys:       16.9  wallclock:        3.7
  
  start of program rwr
  
  Peak memory usage:   3698 Mb
  
  end of program rwr
   
 Time(rwr)  user:       41.7  user+sys:       41.7  wallclock:        5.3
  
  start of program scf
  
  
       i  u  d  i  g                   
       t  p  i  c  r                                 RMS    maximum
       e  d  i  u  i                       energy  density   DIIS  
       r  t  s  t  d       total energy    change  change    error 
  
etot    1  N  N  2  U    -978.92144007740           3.8E-04  3.9E-03
etot    2  Y  Y  6  M    -978.93449132062  1.3E-02  8.3E-05  7.4E-04
etot    3  N  Y  2  U    -978.93446775560 -2.4E-05  5.2E-05  1.3E-03
etot    4  Y  Y  6  M    -978.93488094018  4.1E-04  1.2E-05  1.5E-04
etot    5  N  Y  2  U    -978.93483005808 -5.1E-05  5.4E-06  7.8E-05
etot    6  N  Y  2  U    -978.93483241303  2.4E-06  2.0E-06  2.3E-05
etot    7  N  N  2  U    -978.93483263507  2.2E-07  0.0E+00  0.0E+00
  
  
 Energy components, in hartrees:
   (A)  Nuclear repulsion............    1996.06459871685
   (E)  Total one-electron terms.....   -5299.99916067309
   (I)  Total two-electron terms.....    2324.99972932116
   (J)    Coulomb....................    2463.37377402974
   (K)    Exchange+Correlation.......    -138.37404470858
   (L)  Electronic energy............   -2974.99943135193  (E+I)
   (N)  Total energy.................    -978.93483263507  (A+L)
  
 SCFE: SCF energy: DFT(b3lyp)      -978.93483263507 hartrees   iterations:   7
  
 
 HOMO energy:    -0.19949
 LUMO energy:    -0.00380
 
  Orbital energies (hartrees): 
   -19.16466   -19.14731   -19.14466   -14.32128   -10.24612   -10.24531
   -10.22394   -10.22318   -10.21910   -10.21385   -10.20306   -10.20119
   -10.19947   -10.19777   -10.19554   -10.19161   -10.18561   -10.18415
   -10.18160   -10.17565   -10.17422   -10.16947    -1.05708    -1.02799
    -1.01600    -0.92321    -0.85343    -0.82962    -0.78525    -0.77432
    -0.75135    -0.72890    -0.72270    -0.70204    -0.67706    -0.65499
    -0.62988    -0.62545    -0.59848    -0.58723    -0.58054    -0.54684
    -0.52198    -0.50545    -0.50040    -0.49630    -0.47685    -0.47234
    -0.46201    -0.45355    -0.44906    -0.44281    -0.44001    -0.42973
    -0.42693    -0.42049    -0.41172    -0.40524    -0.40214    -0.39418
    -0.38541    -0.37852    -0.37379    -0.36722    -0.35812    -0.35150
    -0.34966    -0.34368    -0.33046    -0.32854    -0.31709    -0.30949
    -0.30234    -0.28935    -0.27318    -0.25377    -0.25089    -0.22079
    -0.20403    -0.19949    -0.00380     0.01300     0.01805     0.06937
     0.08623     0.09560     0.11088     0.11821     0.11981     0.12661
 
[running at reduced cpu priority]
[running at reduced cpu priority]
[running at reduced cpu priority]
  Peak memory usage:   4573 Mb
  
  end of program scf
   
[running at reduced cpu priority]
 Time(scf)  user:      116.0  user+sys:      116.0  wallclock:       13.0
  
  start of program der1a
  
  Peak memory usage:   3709 Mb
  
  end of program der1a
   
 Time(der1a)  user:        3.0  user+sys:        3.0  wallclock:        1.6
  
  start of program rwr
  
  Peak memory usage:   3691 Mb
  
  end of program rwr
   
 Time(rwr)  user:       30.4  user+sys:       30.4  wallclock:        5.2
  
  start of program der1b
  
   
  forces (hartrees/bohr) : total     
   
 atom  label           x              y              z
 ---- --------   -------------  -------------  -------------
    1 C1         -7.116252E-04  -6.384290E-04   1.445170E-03
    2 C2          4.292916E-04  -3.297507E-05   1.624423E-04
    3 C3          1.528407E-04  -1.676788E-03  -1.143136E-03
    4 C4         -5.857266E-05   2.740317E-03   3.476032E-03
    5 C5         -6.679174E-04   2.093724E-03  -5.048217E-03
    6 C6         -3.076109E-03   4.283293E-04  -6.469706E-03
    7 C7         -7.356626E-03   2.951395E-03  -1.829067E-04
    8 C8          7.024266E-03  -3.312509E-03  -6.916433E-04
    9 C9          1.990385E-03   1.739723E-04  -1.340786E-03
   10 C10        -1.466600E-04   1.162728E-03   4.168292E-03
   11 C11         3.682036E-03  -3.462336E-03   1.550774E-03
   12 C12         2.118999E-03  -3.112760E-04   1.054193E-03
   13 C13        -1.978796E-03   8.716572E-04  -1.331233E-03
   14 N14         5.656608E-04  -1.748612E-03   8.811440E-04
   15 C15        -5.818017E-05   2.333264E-03  -1.439337E-03
   16 H16        -3.777128E-04  -1.137184E-03   1.199216E-03
   17 C17        -1.304035E-02   5.955110E-03  -5.412928E-04
   18 C18         1.302125E-02  -4.675023E-03   2.199148E-03
   19 C19        -5.904343E-03   2.016037E-03  -1.474321E-03
   20 H20         4.562675E-04   5.465512E-05   2.238489E-03
   21 O21         3.982754E-03  -1.720382E-03   3.433728E-03
   22 H22        -2.037244E-03  -1.751645E-03  -6.528514E-04
   23 O23        -8.619225E-04   1.812262E-03   2.860070E-04
   24 O24         1.723150E-03  -1.806598E-03   4.982828E-04
   25 H25        -1.384106E-04  -1.411109E-05   7.045625E-04
   26 H26         2.555192E-04   2.072005E-04   7.155235E-04
   27 H27         8.083260E-04  -5.509402E-05  -7.540833E-04
   28 H28        -1.279493E-03   1.122367E-04  -6.842050E-04
   29 H29         5.569716E-04  -3.126172E-04  -3.402015E-04
   30 H30         6.805474E-04   1.244590E-03  -1.285628E-03
   31 H31        -2.499326E-04   1.694403E-04   1.084532E-05
   32 H32         8.241919E-05   2.699301E-04   9.030167E-05
   33 H33         7.409083E-04  -5.209314E-04  -5.225709E-05
   34 H34        -1.947810E-04  -2.893683E-04   2.245065E-04
   35 H35         1.213821E-04  -3.645839E-04  -9.221556E-05
   36 H36        -3.847060E-04  -2.325420E-04   1.646330E-04
   37 H37         2.582293E-05   1.040358E-04  -5.516430E-05
   38 H38         2.970287E-04  -1.867606E-04  -3.190563E-05
   39 H39        -3.384980E-04  -7.625781E-04  -3.479404E-04
   40 C40        -2.150514E-03   1.363828E-03  -1.285295E-03
   41 H41         6.608405E-04   1.470242E-04   7.682618E-04
   42 H42         2.515987E-04  -4.123951E-04   5.145635E-04
   43 H43         5.347870E-05  -1.100340E-04  -7.262874E-05
 -------------   -------------  -------------  -------------
     total       -1.330651E-03   6.769624E-04   4.691617E-04
   
  Peak memory usage:   4499 Mb
  
  end of program der1b
   
 Time(der1b)  user:       35.2  user+sys:       35.2  wallclock:        4.4
  
  start of program geopt
  
  geometry optimization step  3
  energy:            -978.93483263507 hartrees
  
  
  Level shifts adjusted to satisfy step-size constraints
   Step size:    0.3000297
   Cos(theta):   0.8118567
   Final level shift:  -2.1766411E-02
  
  energy change:          -7.7178E-03 .  (  5.0000E-05 )
  gradient maximum:        6.7761E-03 .  (  4.5000E-04 )
  gradient rms:            1.7130E-03 .  (  3.0000E-04 )
  displacement maximum:    1.2717E-01 .  (  1.8000E-03 )
  displacement rms:        2.4015E-02 .  (  1.2000E-03 )
  
  predicted energy change:  -3.5854E-03
  step size:     0.29995
  trust radius:  0.30000
  
  molecular structure not yet converged...
  
  center of mass moved by:
     x:     6.7494E-03     y:     3.2472E-04     z:    -1.6132E-02
  
  new geometry: 
                                   angstroms
  atom               x                 y                 z
  C1            0.0833708398     -0.0470913502     35.0067592306 
  C2            1.4792301642     -0.0191303789     35.1785678454 
  C3            2.1603709544      1.2005499789     35.2104598621 
  C4            1.5087216613      2.4337093642     35.0276649082 
  C5            0.1289995983      2.3888136783     34.8594041552 
  C6           -0.5437323094      1.1786424329     34.9070517535 
  C7           -2.0083772461      1.4493646226     34.7033526481 
  C8           -2.6962197808      0.2646473131     34.0124390326 
  C9           -2.3024004436     -1.0046293644     34.8158940354 
  C10          -0.7679554421     -1.2857687758     34.8152725254 
  C11          -1.8825287297      2.7770029076     33.9220755739 
  C12          -2.7069204606      1.6220628419     36.0742136133 
  C13          -2.5549600369      0.3388937994     36.9017574079 
  N14          -2.9313338719     -0.8601429953     36.1435388778 
  C15          -2.8694182282     -2.0571870261     36.9616189022 
  H16          -3.7829504115      0.3494139693     34.1642029163 
  C17          -2.5098798036      0.2488463357     32.5237386538 
  C18          -2.2377179486      1.3474935113     31.8141808241 
  C19          -1.6440869561      2.6174215121     32.3868921739 
  H20          -2.7326166023      3.4449049665     34.0832897300 
  O21          -0.7171470861      3.4289335501     34.5204751551 
  H22          -2.0886045849      3.4995535217     31.9004754483 
  O23          -0.2335582351      2.6255109070     32.1222510784 
  O24           2.2246438580      3.6065147520     35.0250905289 
  H25           2.0425073620     -0.9448359534     35.2621036727 
  H26           3.2393499172      1.2249296857     35.3321481568 
  H27          -2.7865332071     -1.8753559418     34.3525495146 
  H28          -0.5030384753     -1.7532786733     33.8560033728 
  H29          -0.5394621323     -2.0442328977     35.5753463705 
  H30          -3.7702360347      1.8385357325     35.9109779891 
  H31          -2.2715013517      2.4632476580     36.6243427576 
  H32          -3.2080503742      0.3922877739     37.7823684154 
  H33          -1.5204490505      0.2739144335     37.2870227063 
  H34          -3.5666005269     -1.9609162749     37.8022495605 
  H35          -1.8710818916     -2.2721816392     37.3885442009 
  H36          -3.1749720332     -2.9276789341     36.3712369104 
  H37          -2.8093079712     -0.6628327110     32.0059042818 
  H38          -2.2627341564      1.3004473074     30.7253556722 
  H39          -0.1287553677      2.5265211776     31.1666226469 
  C40           2.3626400099      4.2018783454     33.7320078686 
  H41           2.8763115086      3.5209618342     33.0402272957 
  H42           1.3872381571      4.4604928816     33.3063746814 
  H43           2.9640037502      5.1025047172     33.8743512896 
   
  nuclear repulsion energy.......    1993.878844912 hartrees
  -------------------------------------------------
 /  end of geometry optimization iteration   3   /
 -------------------------------------------------
   
  Peak memory usage:   3521 Mb
  
  end of program geopt
   
 Time(geopt)  user:        3.2  user+sys:        3.2  wallclock:        0.4
  
  start of program onee
  
  smallest eigenvalue of S:    2.962E-04
  number of canonical orbitals.....          434
  Peak memory usage:   3758 Mb
  
  end of program onee
   
 Time(onee)  user:        4.1  user+sys:        4.1  wallclock:        1.6
  
  start of program probe
  
  Peak memory usage:   3688 Mb
  
  end of program probe
   
 Time(probe)  user:        4.6  user+sys:        4.6  wallclock:        1.6
  
  start of program grid
  
  
   grid     grid set  grid #  grid sym
  ------    --------  ------  --------
  coarse        0        0        1
  medium        2        1        1
  fine          0        0        1
  ultrafine     4        2        1
  charge       -1        3        1
  gradient      4        2        1
  density       0        0        1
  DFT-fine    -11        4        1
  DFT-med.    -10        5        1
  DFT-grad    -12        6        1
  DFT-der2      0        0        1
  DFT-cphf      0        0        1
  LMP2-enrg     4        2        1
  LMP2-grad     2        1        1
  DFT-cphf2     0        0        1
  PBF-dens      0        0        1
  plotting     -7        7        1
  Rel-grad    -17        0        1
  
   
  number of gridpoints: 
     atom        C1       C2       C3       C4       C5       C6       C7
  grid # 1       96       96       95       96       96       98       96
  grid # 2      360      333      338      349      345      356      342
  grid # 3       61      178      181      135       75       38        6
  grid # 4     4304     4304     4304     4304     4304     4304     4304
  grid # 5     1192     1192     1192     1192     1192     1192     1192
  grid # 6     5226     5226     5226     5226     5226     5226     5226
   
  number of gridpoints: 
     atom        C8       C9      C10      C11      C12      C13      N14
  grid # 1       92       90       86       89       86       85      103
  grid # 2      319      311      289      314      292      287      387
  grid # 3        6        6        6        6        6        6       98
  grid # 4     4304     4304     4304     4304     4304     4304     4304
  grid # 5     1192     1192     1192     1192     1192     1192     1192
  grid # 6     5226     5226     5226     5226     5226     5226     5226
   
  number of gridpoints: 
     atom       C15      H16      C17      C18      C19      H20      O21
  grid # 1       78      108       95       97       90      111      113
  grid # 2      262      428      335      339      313      438      444
  grid # 3        6      665       68      120        6      796      400
  grid # 4     4304     4304     4304     4304     4304     4304     4304
  grid # 5     1192     1192     1192     1192     1192     1192     1192
  grid # 6     5226     5226     5226     5226     5226     5226     5226
   
  number of gridpoints: 
     atom       H22      O23      O24      H25      H26      H27      H28
  grid # 1      110      107      116      118      116      107      109
  grid # 2      441      409      449      448      447      422      433
  grid # 3      932      218      646     1165     1192      562      827
  grid # 4     4304     4304     4304     4304     4304     4304     4304
  grid # 5     1192     1192     1192     1192     1192     1192     1192
  grid # 6     5226     5226     5226     5226     5226     5226     5226
   
  number of gridpoints: 
     atom       H29      H30      H31      H32      H33      H34      H35
  grid # 1      105      108      109      108      108      111      107
  grid # 2      418      429      435      433      428      437      429
  grid # 3      539      734      782      829      583     1016      757
  grid # 4     4304     4304     4304     4304     4304     4304     4304
  grid # 5     1192     1192     1192     1192     1192     1192     1192
  grid # 6     5226     5226     5226     5226     5226     5226     5226
   
  number of gridpoints: 
     atom       H36      H37      H38      H39      C40      H41      H42
  grid # 1      108      114      115      112       79      112      106
  grid # 2      434      440      443      441      258      438      425
  grid # 3      941      991     1081     1040        6      985      643
  grid # 4     4304     4304     4304     4304     4304     4304     4304
  grid # 5     1192     1192     1192     1192     1192     1192     1192
  grid # 6     5226     5226     5226     5226     5226     5226     5226
   
  number of gridpoints: 
     atom       H43    total
  grid # 1      112     4393
  grid # 2      448    16566
  grid # 3     1308    20646
  grid # 4     4304   185072
  grid # 5     1192    51256
  grid # 6     5226   224718
   
  Sorting grid blocks by size.
  Peak memory usage:   3668 Mb
  
  end of program grid
   
 Time(grid)  user:       14.3  user+sys:       14.3  wallclock:        2.6
  
  start of program rwr
  
  Peak memory usage:   3694 Mb
  
  end of program rwr
   
 Time(rwr)  user:       42.6  user+sys:       42.6  wallclock:        5.4
  
  start of program scf
  
  
       i  u  d  i  g                   
       t  p  i  c  r                                 RMS    maximum
       e  d  i  u  i                       energy  density   DIIS  
       r  t  s  t  d       total energy    change  change    error 
  
etot    1  N  N  2  U    -978.92968324210           3.1E-04  3.0E-03
etot    2  Y  Y  6  M    -978.93855052601  8.9E-03  7.0E-05  8.3E-04
etot    3  N  Y  2  U    -978.93851551872 -3.5E-05  4.2E-05  1.2E-03
etot    4  N  Y  2  U    -978.93873344991  2.2E-04  9.8E-06  1.3E-04
etot    5  N  Y  2  U    -978.93873810595  4.7E-06  4.2E-06  6.2E-05
etot    6  N  N  2  U    -978.93873972723  1.6E-06  0.0E+00  0.0E+00
  
  
 Energy components, in hartrees:
   (A)  Nuclear repulsion............    1993.87884491170
   (E)  Total one-electron terms.....   -5295.56284968502
   (I)  Total two-electron terms.....    2322.74526504609
   (J)    Coulomb....................    2461.13572002647
   (K)    Exchange+Correlation.......    -138.39045498038
   (L)  Electronic energy............   -2972.81758463893  (E+I)
   (N)  Total energy.................    -978.93873972723  (A+L)
  
 SCFE: SCF energy: DFT(b3lyp)      -978.93873972723 hartrees   iterations:   6
  
 
 HOMO energy:    -0.19882
 LUMO energy:    -0.00042
 
  Orbital energies (hartrees): 
   -19.16513   -19.14767   -19.14490   -14.32133   -10.24665   -10.24575
   -10.22400   -10.22303   -10.21935   -10.21294   -10.20412   -10.20141
   -10.19930   -10.19715   -10.19542   -10.19148   -10.18527   -10.18350
   -10.18225   -10.17574   -10.17368   -10.16898    -1.05780    -1.02880
    -1.01642    -0.92503    -0.85432    -0.83023    -0.78689    -0.77534
    -0.75196    -0.72922    -0.72360    -0.70254    -0.67746    -0.65558
    -0.63072    -0.62627    -0.59959    -0.58792    -0.58060    -0.54686
    -0.52253    -0.50520    -0.50098    -0.49719    -0.47772    -0.47325
    -0.46265    -0.45316    -0.44928    -0.44399    -0.44030    -0.42944
    -0.42769    -0.42072    -0.41200    -0.40588    -0.40235    -0.39373
    -0.38643    -0.37808    -0.37355    -0.36801    -0.35925    -0.35168
    -0.34974    -0.34512    -0.33167    -0.32819    -0.31740    -0.30949
    -0.30440    -0.29048    -0.27272    -0.25516    -0.25291    -0.22016
    -0.20400    -0.19882    -0.00042     0.01353     0.01905     0.07016
     0.08572     0.09380     0.10963     0.11730     0.11988     0.12649
 
[running at reduced cpu priority]
[running at reduced cpu priority]
[running at reduced cpu priority]
[running at reduced cpu priority]
  Peak memory usage:   4573 Mb
  
  end of program scf
   
 Time(scf)  user:       97.5  user+sys:       97.5  wallclock:       10.2
  
  start of program der1a
  
  Peak memory usage:   3709 Mb
  
  end of program der1a
   
 Time(der1a)  user:        3.1  user+sys:        3.1  wallclock:        1.5
  
  start of program rwr
  
  Peak memory usage:   3703 Mb
  
  end of program rwr
   
 Time(rwr)  user:       38.9  user+sys:       38.9  wallclock:        6.5
  
  start of program der1b
  
   
  forces (hartrees/bohr) : total     
   
 atom  label           x              y              z
 ---- --------   -------------  -------------  -------------
    1 C1          6.233145E-04   4.717786E-04   1.722567E-03
    2 C2         -6.506612E-04   5.450179E-05   2.259624E-04
    3 C3          1.608105E-04   1.189730E-03  -7.204334E-04
    4 C4         -4.082189E-04  -5.615871E-04   1.624010E-03
    5 C5         -5.218307E-04   1.349769E-03  -1.828598E-03
    6 C6          1.323685E-03  -1.149676E-03  -3.827362E-03
    7 C7         -4.337496E-03   3.432697E-04  -6.803048E-04
    8 C8          1.651404E-03  -7.046947E-05  -1.491518E-05
    9 C9          1.160533E-03  -5.447533E-04  -5.139354E-04
   10 C10         5.971989E-04  -1.242900E-03   8.802603E-04
   11 C11         3.591760E-03   2.021676E-03   7.010832E-04
   12 C12         9.066079E-04  -4.258395E-04   1.257730E-03
   13 C13         3.000895E-04  -1.473558E-04   1.246419E-03
   14 N14        -1.145204E-03   2.974781E-05   6.503602E-05
   15 C15        -1.761931E-04  -7.570023E-04   1.027064E-03
   16 H16         1.128820E-04  -1.272066E-04   4.580383E-04
   17 C17        -7.614173E-03   4.668106E-04   3.504557E-04
   18 C18         9.206822E-03  -1.214738E-03  -2.686913E-04
   19 C19        -4.235905E-03   1.420799E-03   8.724089E-05
   20 H20         1.365422E-04  -1.294930E-04   2.789419E-04
   21 O21        -3.539585E-04  -2.165819E-03   8.829064E-04
   22 H22        -1.255794E-03  -8.738568E-04  -4.285575E-04
   23 O23        -1.083840E-03   1.473689E-03  -4.866555E-04
   24 O24         2.338235E-03  -1.384703E-03   5.457753E-04
   25 H25        -2.290118E-04  -2.058843E-04   3.441998E-04
   26 H26        -4.661615E-05  -8.918172E-05   4.206118E-04
   27 H27        -1.444879E-04   4.703694E-04  -6.164714E-05
   28 H28        -1.788137E-04   4.328237E-04  -3.617710E-04
   29 H29        -2.879636E-04   4.844245E-04  -2.729881E-04
   30 H30         5.645629E-05   3.046692E-04   3.924667E-05
   31 H31        -1.274029E-04  -2.272017E-04  -7.409316E-05
   32 H32         4.842426E-05  -1.927358E-04  -4.797187E-04
   33 H33        -5.445047E-04   3.182215E-04  -2.142262E-04
   34 H34         2.034527E-04   5.791478E-06  -9.237434E-05
   35 H35        -2.552683E-04   2.431250E-04  -2.866100E-04
   36 H36        -1.526566E-04   1.672005E-04   3.267213E-05
   37 H37         4.525680E-04   1.455525E-04  -3.347486E-04
   38 H38        -2.534341E-04  -1.517003E-04  -1.491748E-04
   39 H39         3.430471E-04  -7.495606E-04   1.703628E-04
   40 C40        -1.810473E-03   9.305271E-04  -9.846977E-04
   41 H41         5.620711E-04   4.346048E-04   4.617470E-04
   42 H42         5.672657E-04   4.410468E-05   2.533842E-04
   43 H43        -1.176852E-04   6.950390E-05  -3.189099E-04
 -------------   -------------  -------------  -------------
     total       -1.588422E-03   4.610258E-04   6.753030E-04
   
  Peak memory usage:   4499 Mb
  
  end of program der1b
   
 Time(der1b)  user:       33.6  user+sys:       33.6  wallclock:        4.3
  
  start of program geopt
  
  geometry optimization step  4
  energy:            -978.93873972723 hartrees
  
  
  Level shifts adjusted to satisfy step-size constraints
   Step size:    0.3000056
   Cos(theta):   0.7835038
   Final level shift:  -1.0390123E-02
  
  energy change:          -3.9071E-03 .  (  5.0000E-05 )
  gradient maximum:        4.4840E-03 .  (  4.5000E-04 )
  gradient rms:            9.3521E-04 .  (  3.0000E-04 )
  displacement maximum:    1.4464E-01 .  (  1.8000E-03 )
  displacement rms:        2.4013E-02 .  (  1.2000E-03 )
  
  predicted energy change:  -1.8409E-03
  step size:     0.29992
  trust radius:  0.30000
  
  molecular structure not yet converged...
  
  center of mass moved by:
     x:     5.8757E-03     y:    -1.5252E-05     z:    -1.5460E-02
  
  new geometry: 
                                   angstroms
  atom               x                 y                 z
  C1            0.0847099780     -0.0622490629     35.0035135582 
  C2            1.4762744231     -0.0372250985     35.2043501128 
  C3            2.1632695853      1.1795602509     35.2302086567 
  C4            1.5219331805      2.4141372401     35.0237440836 
  C5            0.1451995863      2.3700529027     34.8179200609 
  C6           -0.5342153127      1.1632263130     34.8657600950 
  C7           -2.0038887300      1.4455851729     34.6944720973 
  C8           -2.7006547114      0.2577715601     34.0169367092 
  C9           -2.3065891146     -1.0092694075     34.8287575712 
  C10          -0.7734465976     -1.2991472339     34.8323234419 
  C11          -1.8852186167      2.7791237475     33.9183645580 
  C12          -2.6712393036      1.6225316523     36.0837358017 
  C13          -2.5388499761      0.3374747686     36.9100799083 
  N14          -2.9402487510     -0.8552965475     36.1557895635 
  C15          -2.9025226164     -2.0503499950     36.9766036093 
  H16          -3.7866760626      0.3389008373     34.1800844304 
  C17          -2.5107103651      0.2362298063     32.5312481233 
  C18          -2.1913958916      1.3185633923     31.8171840320 
  C19          -1.6843932569      2.6296476518     32.3738372712 
  H20          -2.7214904889      3.4550351735     34.1126425354 
  O21          -0.7000676559      3.4144186796     34.5017526282 
  H22          -2.2216535949      3.4627632293     31.8937132013 
  O23          -0.2884797421      2.7602714752     32.0688518792 
  O24           2.2460338390      3.5828049439     35.0373934967 
  H25           2.0301994357     -0.9644304382     35.3253631904 
  H26           3.2384421793      1.2018642101     35.3820605396 
  H27          -2.7951652461     -1.8784501481     34.3675513367 
  H28          -0.5155453848     -1.7792725186     33.8762466157 
  H29          -0.5474936010     -2.0508817787     35.5989327585 
  H30          -3.7308367495      1.8689247749     35.9378884366 
  H31          -2.2078702359      2.4513243700     36.6292509836 
  H32          -3.1864973525      0.4014528299     37.7933422906 
  H33          -1.5039716677      0.2569758756     37.2914325495 
  H34          -3.5876594347     -1.9349888135     37.8246717954 
  H35          -1.9062862519     -2.2935668091     37.3940718096 
  H36          -3.2387845127     -2.9139546924     36.3924137631 
  H37          -2.7937680492     -0.6806089383     32.0136326907 
  H38          -2.1834184473      1.2530974778     30.7286249164 
  H39          -0.1941658841      2.6200403940     31.1170799765 
  C40           2.3561027608      4.2224744098     33.7591343853 
  H41           2.8925374688      3.5806229936     33.0478262095 
  H42           1.3717340028      4.4595312383     33.3444743067 
  H43           2.9273234659      5.1383705975     33.9249128088 
   
  nuclear repulsion energy.......    1990.153105182 hartrees
  -------------------------------------------------
 /  end of geometry optimization iteration   4   /
 -------------------------------------------------
   
  Peak memory usage:   3521 Mb
  
  end of program geopt
   
 Time(geopt)  user:        4.2  user+sys:        4.2  wallclock:        0.5
  
  start of program onee
  
  smallest eigenvalue of S:    2.886E-04
  number of canonical orbitals.....          434
  Peak memory usage:   3758 Mb
  
  end of program onee
   
 Time(onee)  user:        3.2  user+sys:        3.2  wallclock:        1.6
  
  start of program probe
  
  Peak memory usage:   3688 Mb
  
  end of program probe
   
 Time(probe)  user:        4.2  user+sys:        4.2  wallclock:        1.7
  
  start of program grid
  
  
   grid     grid set  grid #  grid sym
  ------    --------  ------  --------
  coarse        0        0        1
  medium        2        1        1
  fine          0        0        1
  ultrafine     4        2        1
  charge       -1        3        1
  gradient      4        2        1
  density       0        0        1
  DFT-fine    -11        4        1
  DFT-med.    -10        5        1
  DFT-grad    -12        6        1
  DFT-der2      0        0        1
  DFT-cphf      0        0        1
  LMP2-enrg     4        2        1
  LMP2-grad     2        1        1
  DFT-cphf2     0        0        1
  PBF-dens      0        0        1
  plotting     -7        7        1
  Rel-grad    -17        0        1
  
   
  number of gridpoints: 
     atom        C1       C2       C3       C4       C5       C6       C7
  grid # 1       96       96       94       96       96       98       94
  grid # 2      359      334      338      348      346      353      344
  grid # 3       60      181      189      135       69       46        6
  grid # 4     4304     4304     4304     4304     4304     4304     4304
  grid # 5     1192     1192     1192     1192     1192     1192     1192
  grid # 6     5226     5226     5226     5226     5226     5226     5226
   
  number of gridpoints: 
     atom        C8       C9      C10      C11      C12      C13      N14
  grid # 1       92       90       86       90       86       85      102
  grid # 2      317      312      289      315      293      286      387
  grid # 3        6        6        6        7        6        6       98
  grid # 4     4304     4304     4304     4304     4304     4304     4304
  grid # 5     1192     1192     1192     1192     1192     1192     1192
  grid # 6     5226     5226     5226     5226     5226     5226     5226
   
  number of gridpoints: 
     atom       C15      H16      C17      C18      C19      H20      O21
  grid # 1       78      109       96       96       91      111      113
  grid # 2      262      424      335      337      313      436      443
  grid # 3        6      689       70      118        6      799      387
  grid # 4     4304     4304     4304     4304     4304     4304     4304
  grid # 5     1192     1192     1192     1192     1192     1192     1192
  grid # 6     5226     5226     5226     5226     5226     5226     5226
   
  number of gridpoints: 
     atom       H22      O23      O24      H25      H26      H27      H28
  grid # 1      110      108      116      118      118      107      109
  grid # 2      442      411      451      448      447      420      433
  grid # 3      949      229      640     1164     1207      561      833
  grid # 4     4304     4304     4304     4304     4304     4304     4304
  grid # 5     1192     1192     1192     1192     1192     1192     1192
  grid # 6     5226     5226     5226     5226     5226     5226     5226
   
  number of gridpoints: 
     atom       H29      H30      H31      H32      H33      H34      H35
  grid # 1      107      108      109      108      108      111      107
  grid # 2      419      428      435      432      427      437      429
  grid # 3      539      733      774      823      584     1013      761
  grid # 4     4304     4304     4304     4304     4304     4304     4304
  grid # 5     1192     1192     1192     1192     1192     1192     1192
  grid # 6     5226     5226     5226     5226     5226     5226     5226
   
  number of gridpoints: 
     atom       H36      H37      H38      H39      C40      H41      H42
  grid # 1      109      116      114      111       79      112      105
  grid # 2      434      440      442      440      256      440      425
  grid # 3      951      997     1070     1050        6     1019      623
  grid # 4     4304     4304     4304     4304     4304     4304     4304
  grid # 5     1192     1192     1192     1192     1192     1192     1192
  grid # 6     5226     5226     5226     5226     5226     5226     5226
   
  number of gridpoints: 
     atom       H43    total
  grid # 1      112     4397
  grid # 2      448    16555
  grid # 3     1312    20734
  grid # 4     4304   185072
  grid # 5     1192    51256
  grid # 6     5226   224718
   
  Sorting grid blocks by size.
  Peak memory usage:   3668 Mb
  
  end of program grid
   
 Time(grid)  user:       14.8  user+sys:       14.8  wallclock:        2.9
  
  start of program rwr
  
  Peak memory usage:   3702 Mb
  
  end of program rwr
   
 Time(rwr)  user:       45.6  user+sys:       45.6  wallclock:        5.7
  
  start of program scf
  
  
       i  u  d  i  g                   
       t  p  i  c  r                                 RMS    maximum
       e  d  i  u  i                       energy  density   DIIS  
       r  t  s  t  d       total energy    change  change    error 
  
etot    1  N  N  2  U    -978.93144828123           3.1E-04  3.2E-03
etot    2  Y  Y  6  M    -978.94061121089  9.2E-03  6.6E-05  9.7E-04
etot    3  N  Y  2  U    -978.94056744391 -4.4E-05  3.8E-05  1.5E-03
etot    4  N  Y  2  U    -978.94078800300  2.2E-04  8.9E-06  9.1E-05
etot    5  N  Y  2  U    -978.94078990830  1.9E-06  4.7E-06  7.0E-05
etot    6  N  N  2  U    -978.94079219448  2.3E-06  0.0E+00  0.0E+00
  
  
 Energy components, in hartrees:
   (A)  Nuclear repulsion............    1990.15310518214
   (E)  Total one-electron terms.....   -5288.08963402984
   (I)  Total two-electron terms.....    2318.99573665322
   (J)    Coulomb....................    2457.37873794114
   (K)    Exchange+Correlation.......    -138.38300128792
   (L)  Electronic energy............   -2969.09389737662  (E+I)
   (N)  Total energy.................    -978.94079219448  (A+L)
  
 SCFE: SCF energy: DFT(b3lyp)      -978.94079219448 hartrees   iterations:   6
  
 
 HOMO energy:    -0.19841
 LUMO energy:     0.00145
 
  Orbital energies (hartrees): 
   -19.16542   -19.14800   -19.14546   -14.32180   -10.24729   -10.24651
   -10.22479   -10.22358   -10.22005   -10.21266   -10.20423   -10.20172
   -10.20035   -10.19702   -10.19554   -10.19204   -10.18579   -10.18344
   -10.18259   -10.17571   -10.17370   -10.16907    -1.05797    -1.02802
    -1.01653    -0.92499    -0.85438    -0.83021    -0.78643    -0.77558
    -0.75199    -0.72918    -0.72403    -0.70277    -0.67772    -0.65577
    -0.63097    -0.62680    -0.60012    -0.58806    -0.58037    -0.54702
    -0.52241    -0.50478    -0.50131    -0.49754    -0.47818    -0.47359
    -0.46284    -0.45315    -0.44872    -0.44441    -0.43992    -0.42990
    -0.42683    -0.42066    -0.41240    -0.40614    -0.40289    -0.39368
    -0.38665    -0.37761    -0.37336    -0.36848    -0.35989    -0.35178
    -0.34948    -0.34531    -0.33201    -0.32777    -0.31793    -0.30894
    -0.30469    -0.29130    -0.27178    -0.25751    -0.25440    -0.21961
    -0.20447    -0.19841     0.00145     0.01376     0.01952     0.07118
     0.08471     0.09220     0.10848     0.11673     0.11928     0.12655
 
[running at reduced cpu priority]
[running at reduced cpu priority]
[running at reduced cpu priority]
[running at reduced cpu priority]
  Peak memory usage:   4573 Mb
  
  end of program scf
   
 Time(scf)  user:       96.4  user+sys:       96.4  wallclock:        9.9
  
  start of program der1a
  
  Peak memory usage:   3709 Mb
  
  end of program der1a
   
 Time(der1a)  user:        4.6  user+sys:        4.6  wallclock:        1.6
  
  start of program rwr
  
  Peak memory usage:   3695 Mb
  
  end of program rwr
   
 Time(rwr)  user:       37.4  user+sys:       37.4  wallclock:        6.1
  
  start of program der1b
  
   
  forces (hartrees/bohr) : total     
   
 atom  label           x              y              z
 ---- --------   -------------  -------------  -------------
    1 C1          1.057197E-04  -2.776866E-04   1.527427E-03
    2 C2         -4.599093E-04  -1.336944E-04   1.732816E-04
    3 C3          2.781015E-04   1.082873E-03   2.343403E-05
    4 C4         -6.720654E-04  -7.755907E-05  -6.959174E-04
    5 C5         -5.326670E-04   9.539287E-04   6.444634E-04
    6 C6          8.815436E-04   6.344319E-04  -2.027012E-03
    7 C7         -1.999485E-03  -8.613453E-04  -4.505616E-05
    8 C8         -9.408337E-04   1.627400E-03   1.356907E-03
    9 C9          2.299822E-04  -9.619494E-04  -8.437411E-05
   10 C10         2.182883E-04  -1.021205E-03  -4.236090E-04
   11 C11         4.356450E-03   1.722130E-03   2.326810E-03
   12 C12         2.442232E-04   2.609499E-04  -4.587325E-04
   13 C13         8.503125E-04  -3.615722E-04   8.237732E-04
   14 N14        -1.651068E-04   9.239663E-04  -1.058963E-03
   15 C15         2.063102E-04  -1.908163E-03   8.367471E-04
   16 H16         3.215110E-04   4.914288E-04  -3.781947E-05
   17 C17        -3.344635E-03  -6.520851E-04  -2.764031E-04
   18 C18         4.719244E-03  -1.112649E-03  -2.194530E-04
   19 C19        -1.923501E-03   1.108028E-04   2.974314E-04
   20 H20         5.939204E-05  -1.337721E-04  -7.809165E-05
   21 O21        -1.460528E-03  -1.076031E-03  -9.536229E-04
   22 H22        -9.347744E-04  -4.468436E-04  -2.200464E-05
   23 O23        -8.576044E-04   1.381636E-03  -4.595142E-04
   24 O24         1.362482E-03  -1.231325E-03  -5.796663E-04
   25 H25        -1.764080E-05  -1.037927E-04  -2.813113E-05
   26 H26        -5.260665E-05  -2.042547E-04   1.582555E-04
   27 H27        -9.237556E-05   2.863463E-04   1.108116E-04
   28 H28        -9.817298E-05   5.647082E-04   1.959565E-04
   29 H29        -2.462067E-04   4.415481E-04   1.055097E-04
   30 H30        -3.162690E-05  -1.425318E-04   8.254593E-05
   31 H31         4.294956E-05   3.118005E-05  -2.874377E-04
   32 H32        -7.802424E-05   2.208349E-04  -2.205212E-04
   33 H33        -3.807040E-04  -9.806445E-05  -2.747127E-04
   34 H34         1.332977E-04   3.277682E-04  -2.310010E-04
   35 H35        -3.057267E-04   4.254892E-04  -3.396084E-04
   36 H36        -1.687550E-05   2.033259E-04  -2.756487E-05
   37 H37         6.382917E-04   8.993309E-05  -2.922519E-04
   38 H38        -3.813703E-04  -1.351889E-04  -1.015071E-04
   39 H39         1.368458E-04  -6.661602E-04   3.436908E-04
[...]
  grid # 1      110      110      116      117      118      106      109
  grid # 2      435      421      448      447      448      422      428
  grid # 3      826      427      541     1147     1287      573      729
  grid # 4     4304     4304     4304     4304     4304     4304     4304
  grid # 5     1192     1192     1192     1192     1192     1192     1192
  grid # 6     5226     5226     5226     5226     5226     5226     5226
   
  number of gridpoints: 
     atom       H29      H30      H31      H32      H33      H34      H35
  grid # 1      107      107      108      108      108      111      106
  grid # 2      416      429      437      433      426      436      429
  grid # 3      501      721      807      821      596     1011      763
  grid # 4     4304     4304     4304     4304     4304     4304     4304
  grid # 5     1192     1192     1192     1192     1192     1192     1192
  grid # 6     5226     5226     5226     5226     5226     5226     5226
   
  number of gridpoints: 
     atom       H36      H37      H38      H39      C40      H41      H42
  grid # 1      110      115      117      113       77      107      111
  grid # 2      436      440      442      445      265      433      437
  grid # 3      985      924     1092     1171        6      759      987
  grid # 4     4304     4304     4304     4304     4304     4304     4304
  grid # 5     1192     1192     1192     1192     1192     1192     1192
  grid # 6     5226     5226     5226     5226     5226     5226     5226
   
  number of gridpoints: 
     atom       H43    total
  grid # 1      111     4404
  grid # 2      447    16583
  grid # 3     1303    20767
  grid # 4     4304   185072
  grid # 5     1192    51256
  grid # 6     5226   224718
   
  Sorting grid blocks by size.
  Peak memory usage:   3668 Mb
  
  end of program grid
   
 Time(grid)  user:       15.0  user+sys:       15.0  wallclock:        2.5
  
  start of program rwr
  
  Peak memory usage:   3702 Mb
  
  end of program rwr
   
 Time(rwr)  user:       43.7  user+sys:       43.7  wallclock:        5.4
  
  start of program scf
  
  
       i  u  d  i  g                   
       t  p  i  c  r                                 RMS    maximum
       e  d  i  u  i                       energy  density   DIIS  
       r  t  s  t  d       total energy    change  change    error 
  
etot    1  N  N  2  U    -978.94684973226           3.5E-05  6.8E-04
etot    2  N  Y  2  U    -978.94696853449  1.2E-04  5.4E-06  9.9E-05
etot    3  N  Y  2  U    -978.94696900695  4.7E-07  3.6E-06  5.4E-05
etot    4  N  N  2  U    -978.94696984689  8.4E-07  0.0E+00  0.0E+00
  
  
 Energy components, in hartrees:
   (A)  Nuclear repulsion............    1975.28350065770
   (E)  Total one-electron terms.....   -5258.19840569342
   (I)  Total two-electron terms.....    2303.96793518882
   (J)    Coulomb....................    2442.36022206643
   (K)    Exchange+Correlation.......    -138.39228687761
   (L)  Electronic energy............   -2954.23047050459  (E+I)
   (N)  Total energy.................    -978.94696984689  (A+L)
  
 SCFE: SCF energy: DFT(b3lyp)      -978.94696984689 hartrees   iterations:   4
  
 
 HOMO energy:    -0.18992
 LUMO energy:     0.00539
 
  Orbital energies (hartrees): 
   -19.16369   -19.15940   -19.14879   -14.32231   -10.24520   -10.24340
   -10.23435   -10.22696   -10.21817   -10.21758   -10.20518   -10.20304
   -10.20257   -10.19482   -10.18736   -10.18541   -10.18529   -10.18439
   -10.18115   -10.17479   -10.17386   -10.17214    -1.05914    -1.03979
    -1.02050    -0.92637    -0.85566    -0.83105    -0.78508    -0.77619
    -0.75079    -0.73222    -0.72608    -0.70215    -0.68130    -0.65853
    -0.63006    -0.62324    -0.60036    -0.58985    -0.57901    -0.54027
    -0.52365    -0.51573    -0.50712    -0.49091    -0.48115    -0.47100
    -0.46666    -0.46184    -0.44954    -0.44575    -0.44531    -0.43342
    -0.42347    -0.41674    -0.41077    -0.40864    -0.40356    -0.39344
    -0.38627    -0.37399    -0.37240    -0.36821    -0.36020    -0.35488
    -0.34723    -0.34498    -0.33621    -0.32586    -0.32115    -0.31067
    -0.30430    -0.29533    -0.28659    -0.27230    -0.24908    -0.21390
    -0.20643    -0.18992     0.00539     0.01415     0.02891     0.06772
     0.07824     0.09434     0.10261     0.11126     0.11868     0.12529
 
[running at reduced cpu priority]
[running at reduced cpu priority]
[running at reduced cpu priority]
[running at reduced cpu priority]
  Peak memory usage:   4573 Mb
  
  end of program scf
   
 Time(scf)  user:       76.2  user+sys:       76.2  wallclock:        8.2
  
  start of program der1a
  
  Peak memory usage:   3709 Mb
  
  end of program der1a
   
 Time(der1a)  user:        3.5  user+sys:        3.5  wallclock:        1.6
  
  start of program rwr
  
  Peak memory usage:   3703 Mb
  
  end of program rwr
   
 Time(rwr)  user:       39.2  user+sys:       39.2  wallclock:        5.7
  
  start of program der1b
  
   
  forces (hartrees/bohr) : total     
   
 atom  label           x              y              z
 ---- --------   -------------  -------------  -------------
    1 C1         -1.410370E-04  -2.442420E-05  -1.181371E-04
    2 C2          9.162469E-05  -1.430161E-05  -7.076004E-05
    3 C3         -2.466914E-05   7.100588E-05   3.192548E-05
    4 C4         -2.147370E-04   7.076295E-05   3.570195E-04
    5 C5          1.741350E-04  -8.624855E-05  -2.793933E-04
    6 C6         -6.587469E-05   1.475746E-04   3.267949E-04
    7 C7          5.343849E-06   2.699759E-05   8.229655E-05
    8 C8         -3.449910E-05   3.305009E-05   1.109311E-07
    9 C9         -2.703415E-05   1.993607E-05   1.039480E-04
   10 C10        -4.669072E-05  -4.027152E-05  -3.517107E-05
   11 C11        -5.738862E-05  -2.054585E-05   4.125622E-05
   12 C12        -2.032721E-05   3.637055E-05  -3.693344E-05
   13 C13        -6.526851E-06  -3.802338E-05  -9.318002E-06
   14 N14        -5.030122E-05   2.036392E-05   2.169800E-05
   15 C15        -7.870397E-06   1.856659E-05   2.862805E-05
   16 H16        -2.600475E-06   1.628339E-05   2.753744E-05
   17 C17        -6.617898E-05  -5.234953E-05  -5.714762E-05
   18 C18         2.536315E-04   8.649908E-05   4.940219E-05
   19 C19        -1.411375E-04   2.902711E-05  -1.321218E-05
   20 H20        -2.809070E-05   2.553304E-05   1.282021E-05
   21 O21         5.221337E-05   3.298734E-05   4.202096E-05
   22 H22        -7.694899E-05   1.736092E-05   1.930543E-05
   23 O23         2.613983E-06  -2.783729E-05   7.929317E-07
   24 O24        -2.311098E-05  -3.816657E-05  -2.249576E-04
   25 H25        -3.833371E-05  -2.406926E-05  -3.356769E-05
   26 H26        -2.597529E-05  -1.354678E-05  -1.392160E-04
   27 H27        -5.193400E-05   3.297884E-05   1.938429E-05
   28 H28        -1.284813E-05   1.204820E-05  -1.371297E-06
   29 H29        -3.878692E-05   4.190780E-05   3.285614E-05
   30 H30        -2.209929E-05   1.176030E-05   4.758516E-05
   31 H31        -5.493957E-06   9.894056E-07   1.106586E-05
   32 H32         7.031261E-06   1.093561E-05   2.133072E-05
   33 H33         2.098378E-05   1.021452E-05   8.972370E-06
   34 H34        -1.265363E-05   1.803980E-05   2.456137E-05
   35 H35         9.981717E-06   1.451827E-05   1.821297E-05
   36 H36        -7.877954E-06   2.262759E-05   2.337210E-05
   37 H37        -7.535561E-05  -9.375857E-06   5.927539E-06
   38 H38        -2.325588E-04   1.920429E-05  -2.475053E-05
   39 H39        -1.031456E-04   4.183498E-05  -1.375516E-05
   40 C40        -8.593035E-05   1.120563E-04   9.418257E-05
   41 H41        -2.377956E-05  -4.205421E-06  -4.046331E-05
   42 H42         2.737839E-07  -4.322269E-05  -6.495885E-05
   43 H43        -6.118137E-06   9.475920E-06  -1.200759E-05
 -------------   -------------  -------------  -------------
     total       -1.160082E-03   5.743224E-04   2.778870E-04
   
  Peak memory usage:   4499 Mb
  
  end of program der1b
   
 Time(der1b)  user:       34.9  user+sys:       34.9  wallclock:        4.4
  
  start of program geopt
  
  geometry optimization step 20
  energy:            -978.94696984689 hartrees
  
  energy change:          -7.6171E-06 *  (  5.0000E-05 )
  gradient maximum:        2.9388E-04 *  (  4.5000E-04 )
  gradient rms:            5.7363E-05 #  (  3.0000E-04 )
  displacement maximum:    7.8363E-03 .  (  1.8000E-03 )
  displacement rms:        1.0342E-03 *  (  1.2000E-03 )
  
  predicted energy change:  -2.8187E-06
  step size:     0.01292
  trust radius:  0.30000
  
  ********************************************************
  **           Geometry optimization complete           **
  ********************************************************
  
  Checking the geometry optimization convergence pattern ...
  
  best                    worst
  ==0=====1=====2=====3=====4==
          ^                    
  
  Convergence category 1: non-monotonic convergence to an optimal structure.
  Geometry optimization was OK.
  
[running at reduced cpu priority]
[running at reduced cpu priority]
[running at reduced cpu priority]
[running at reduced cpu priority]
  Number of imaginary frequencies:   0
  
  center of mass moved by:
     x:     0.0000E+00     y:     0.0000E+00     z:     0.0000E+00
  
  final geometry: 
                                   angstroms
  atom               x                 y                 z
  C1            0.0949643049     -0.1335343836     35.2038428918 
  C2            1.4945254585     -0.2015131098     35.3120839904 
  C3            2.2772178022      0.9347697138     35.1211148955 
  C4            1.7269757627      2.1824512861     34.7690197011 
  C5            0.3326447664      2.2408379575     34.6877753155 
  C6           -0.4376037034      1.1186197571     34.9575383397 
  C7           -1.8993106373      1.4524992859     34.7653968530 
  C8           -2.5309779874      0.2517340257     34.0170472416 
  C9           -2.3312925345     -0.9924163202     34.9253622037 
  C10          -0.8251373916     -1.3378907966     35.1633659579 
  C11          -1.7679949918      2.7908299146     33.9801793022 
  C12          -2.6436998253      1.6494305654     36.1061022680 
  C13          -2.6639628206      0.3688379148     36.9445441838 
  N14          -3.1245423608     -0.7712267309     36.1492893962 
  C15          -3.3105956366     -1.9652840636     36.9565213478 
  H16          -3.6189294199      0.3953320779     33.9439234659 
  C17          -1.9408428279      0.1366099230     32.6336066460 
  C18          -1.6457849084      1.2355977434     31.9354899895 
  C19          -1.9796438077      2.6198321450     32.4508894336 
  H20          -2.4592721582      3.5563277683     34.3411158579 
  O21          -0.4429989985      3.3053427026     34.2811281734 
  H22          -3.0656473152      2.7684510688     32.3005477073 
  O23          -1.2606513813      3.6541910977     31.7906865396 
  O24           2.6126451477      3.1953124859     34.5420671524 
  H25           1.9819010927     -1.1522638341     35.5126196168 
  H26           3.3591110527      0.8776539602     35.1902699895 
  H27          -2.7893658203     -1.8542257580     34.4238049287 
  H28          -0.4874145193     -1.9957872130     34.3514045536 
  H29          -0.7367594631     -1.9410937441     36.0753054642 
  H30          -3.6750360257      1.9549350925     35.8870451346 
  H31          -2.1733753693      2.4568881810     36.6786575482 
  H32          -3.3554457476      0.4945330134     37.7861558863 
  H33          -1.6642252451      0.1955745496     37.3844525971 
  H34          -4.0523000640     -1.7634189341     37.7370897058 
  H35          -2.3946107944     -2.3274561625     37.4601568136 
  H36          -3.6932430200     -2.7788544555     36.3313038675 
  H37          -1.7457094769     -0.8518003800     32.2218348903 
  H38          -1.2086907656      1.1729526586     30.9403926843 
  H39          -1.5146614533      3.6315526794     30.8588846089 
  C40           2.1656792715      4.3513622950     33.8291025846 
  H41           1.6646810400      4.0806615916     32.8948872217 
  H42           1.4777007213      4.9530658585     34.4303422491 
  H43           3.0681970724      4.9277465868     33.6155125848 
   
  principal moments of inertia:
        amu*angstrom^2:     1055.88937     1885.55080     2343.75035
                g*cm^2: 1.75334532E-37 3.13103038E-37 3.89188854E-37
   
  rotational constants:
               cm^(-1):      0.01596534      0.00894043      0.00719259
                   GHz:      0.47862875      0.26802726      0.21562834
   
  nuclear repulsion energy.......    1975.283500658 hartrees
  -------------------------------------------------
 /  end of geometry optimization iteration  20   /
 -------------------------------------------------
   
  Peak memory usage:   3652 Mb
  
  end of program geopt
   
 Time(geopt)  user:        6.2  user+sys:        6.2  wallclock:        0.8
  
  start of program ch
  
  gridpoints used for charge fit        19613
    out of a possible maximum of        20767
  
   Electrostatic potential fitting constrained to reproduce
     total charge:                yes
     dipole moment:               no 
     traceless quadrupole moment: no 
     traceless octapole moment:   no 
  
  Atomic charges from electrostatic potential: 
   
 Atom       C1           C2           C3           C4           C5      
 Charge    0.19670     -0.24517     -0.24477      0.15469      0.34091
   
 Atom       C6           C7           C8           C9           C10     
 Charge   -0.29684      0.07833      0.00446      0.17533     -0.18714
   
 Atom       C11          C12          C13          N14          C15     
 Charge    0.33172     -0.38058      0.15016     -0.38452     -0.28239
   
 Atom       H16          C17          C18          C19          H20     
 Charge    0.05533     -0.25144     -0.21843      0.31904      0.00301
   
 Atom       O21          H22          O23          O24          H25     
 Charge   -0.38199     -0.02394     -0.63666     -0.30520      0.13579
   
 Atom       H26          H27          H28          H29          H30     
 Charge    0.15835      0.06084      0.05817      0.08226      0.10839
   
 Atom       H31          H32          H33          H34          H35     
 Charge    0.12154      0.06858      0.02317      0.12697      0.08445
   
 Atom       H36          H37          H38          H39          C40     
 Charge    0.12212      0.14314      0.12292      0.40247      0.01987
   
 Atom       H41          H42          H43     
 Charge    0.07226      0.05660      0.06148
  
  sum of atomic charges:     0.000000
   
 RMS Error   8.59E-04 hartrees
 
[running at reduced cpu priority]
[running at reduced cpu priority]
[running at reduced cpu priority]
[running at reduced cpu priority]
  Peak memory usage:   3809 Mb
  
  end of program ch
   
 Time(ch)  user:       12.6  user+sys:       12.6  wallclock:        3.2
  
  start of program elden
  
  
  Plot box parameters (in Angstroms):
   x min,max:          -6.346595    5.653405
   y min,max:          -5.112894    7.287106
   z min,max:          28.522520   40.122520
   plot resolution:     5.000000
   points:    60   62   58
  
 
  Calculating electron density...
  File(s) written:
    jag_cod_opt_B3LYP_6-31Gss_density.vis
  
  Calculating electrostatic potential in units of kcal/mol
  
[running at reduced cpu priority]
  Electrostatic Potential at the Nuclei (EPN)
 
    Atom    EPN (au)  EPN (kcal/mol)
  --------  --------  --------------
  C1         -14.747        -9254.04
  C2         -14.754        -9258.36
  C3         -14.754        -9258.19
  C4         -14.691        -9218.83
  C5         -14.701        -9225.04
  C6         -14.760        -9262.16
  C7         -14.724        -9239.43
  C8         -14.732        -9244.60
  C9         -14.707        -9229.04
  C10        -14.740        -9249.66
  C11        -14.684        -9214.19
  C12        -14.743        -9251.18
  C13        -14.720        -9236.93
  N14        -18.361       -11521.51
  C15        -14.722        -9238.24
  H16         -1.126         -706.64
  C17        -14.743        -9251.57
  C18        -14.746        -9253.17
  C19        -14.679        -9210.95
  H20         -1.121         -703.47
  O21        -22.300       -13993.43
  H22         -1.119         -702.10
  O23        -22.314       -14002.33
  O24        -22.302       -13994.45
  H25         -1.125         -706.20
  H26         -1.125         -705.80
  H27         -1.128         -707.82
  H28         -1.126         -706.68
  H29         -1.125         -705.82
  H30         -1.131         -709.66
  H31         -1.128         -708.12
  H32         -1.129         -708.50
  H33         -1.140         -715.05
  H34         -1.125         -705.91
  H35         -1.132         -710.31
  H36         -1.123         -704.95
  H37         -1.113         -698.15
  H38         -1.109         -696.20
  H39         -1.005         -630.72
  C40        -14.706        -9228.35
  H41         -1.134         -711.64
  H42         -1.135         -712.53
  H43         -1.129         -708.24
  
  File written:
    jag_cod_opt_B3LYP_6-31Gss_potential.vis
  
  Density isovalue:  0.00100 electrons/bohr**3,  0.00015 electrons/A**3
  Number of surface points:     10902
  Area of molecular surface:   1090.9 bohr**2,    305.5 A**2
  
  
  Analysis of ESP on isodensity surface:
  ------------------------------------- 
  
  Minimum ESP value:                  -39.69 kcal/mol
  Maximum ESP value:                   44.89 kcal/mol
  Mean ESP value:                      -0.67 kcal/mol
  Mean positive ESP value:              7.46 kcal/mol
  Mean negative ESP value:            -12.31 kcal/mol
  Number of positive ESP values:        6419
  Number of negative ESP values:        4483
  Variance of positive ESP values:     44.63 (kcal/mol)**2
  Variance of negative ESP values:     77.16 (kcal/mol)**2
  Total ESP variance:                 121.79 (kcal/mol)**2
  ESP balance:                         0.232
  Local polarity:                       9.58 kcal/mol
  
    Atom    Max. ESP  Min. ESP
  --------  --------  --------
  C1          -10.61    -21.10
  C2          -11.39    -21.29
  C3          -14.51    -21.39
  C4          -10.09    -20.29
  C5           -9.83    -20.56
  C6          -12.51    -21.78
  C7            0.00      0.00
  C8            0.00      0.00
  C9            0.00      0.00
  C10           0.00      0.00
  C11           0.00      0.00
  C12           0.00      0.00
  C13           0.00      0.00
  N14         -15.94    -25.61
  C15           0.00      0.00
  H16          13.86    -23.42
  C17           0.15    -20.98
  C18           5.79    -21.48
  C19           0.00      0.00
  H20          14.54    -21.10
  O21         -10.59    -39.66
  H22          22.54     -8.48
  O23          -7.44    -39.69
  O24         -12.33    -30.55
  H25           8.18    -14.96
  H26           4.46    -24.73
  H27          11.70    -14.55
  H28          10.84    -13.74
  H29           9.04     -9.43
  H30          13.41    -19.55
  H31           5.87    -12.03
  H32           9.33    -16.32
  H33           3.66    -16.52
  H34          10.05    -18.21
  H35           7.95      2.02
  H36          11.36    -16.94
  H37          13.55    -16.04
  H38          24.76    -16.68
  H39          44.89    -14.41
  C40           0.00      0.00
  H41           2.93    -38.80
  H42           3.03    -32.13
  H43           6.98    -19.38
  
[running at reduced cpu priority]
[running at reduced cpu priority]
  Peak memory usage:   3624 Mb
  
  end of program elden
   
 Time(elden)  user:       60.9  user+sys:       60.9  wallclock:       33.7
[running at reduced cpu priority]

 Total cpu seconds     user:    4749.255   user+sys:    4749.255
  
 Total elapsed time:    872 seconds

Job jag_cod_opt_B3LYP_6-31Gss completed on chemcca11.ucsd.edu at Fri Sep 25 15:52:11 2015
